% Model:              mk1_no_rod.mph
% Version:            COMSOL 5.3.0.260
% Date:               Aug 30 2017, 21:33
% Dimension:          2
% Nodes:              2681
% Expressions:        1
% Description:        Surface
% cpl1x                   cpl1y                    Color
1.708                     5.597755495100062        0
1.768                     5.7285                   0
1.708                     5.7285                   0
1.7679999999999998        5.566594856329487        0
1.7680000000000002        5.359757496018752        0
1.7079999999999995        5.407387782712203        0
1.708                     5.1963638962815235       0
1.7679999999999998        5.151802269107956        0
1.7079999999999997        4.98395250665337         0
1.7680000000000002        4.943847042197162        0
1.7079999999999997        4.771541117025218        0
1.7679999999999998        4.735891815286365        0
1.708                     4.559129727397066        0
1.7679999999999996        4.527936588375569        0
-1.708                    5.597755495100062        0
-1.7680000000000002       5.566594856329488        0
-1.768                    5.7285                   0
-1.708                    5.7285                   0
-1.7079999999999995       5.407387782712203        0
-1.7679999999999998       5.3597574960187515       0
1.7079999999999997        4.346718337768913        0
1.7680000000000002        4.319981361464775        0
1.708                     4.134306948140761        0
1.7679999999999998        4.112026134553978        0
-1.708                    1.1605474933466304       0
-1.7679999999999998       1.2006529578028404       0
-1.708                    1.3729588829747825       0
-1.768                    1.4086081847136356       0
-1.708                    5.1963638962815235       0
-1.7680000000000002       5.151802269107957        0
-1.7079999999999997       4.98395250665337         0
-1.768                    4.94384704219716         0
-1.7079999999999997       4.771541117025218        0
-1.768                    4.735891815286365        0
-1.7679999999999998       1.6165634116244307       0
-1.708                    1.585370272602935        0
1.7680000000000002        3.904070907643183        0
1.7079999999999997        3.921895558512608        0
1.708                     3.7094841688844564       0
1.7679999999999998        3.6961156807323867       0
-1.7680000000000002       4.527936588375569        0
-1.708                    4.559129727397066        0
1.768                     3.488160453821592        0
1.708                     3.497072779256305        0
1.768                     3.2802052269107964       0
1.708                     3.2846613896281522       0
1.768                     3.07225                  0
1.708                     3.07225                  0
1.7680000000000002        2.864294773089205        0
-1.768                    1.8245186385352272       0
-1.708                    1.7977816622310865       0
-1.7079999999999997       4.346718337768913        0
-1.7679999999999998       4.319981361464773        0
1.708                     2.859838610371848        0
1.7680000000000002        2.6563395461784087       0
1.7079999999999997        2.6474272207436957       0
1.7680000000000002        2.4483843192676136       0
1.7080000000000004        2.4350158311155443       0
1.7679999999999998        2.2404290923568175       0
1.7079999999999997        2.222604441487391        0
1.7680000000000002        2.032473865446023        0
-1.7679999999999998       4.112026134553978        0
-1.708                    4.134306948140761        0
-1.768                    3.9040709076431828       0
-1.7079999999999997       3.921895558512608        0
-1.708                    2.010193051859239        0
-1.768                    2.032473865446022        0
1.708                     2.010193051859239        0
1.768                     1.8245186385352272       0
-1.708                    3.7094841688844564       0
-1.7679999999999998       3.6961156807323867       0
1.708                     1.7977816622310865       0
1.7679999999999998        1.6165634116244316       0
1.7679999999999998        1.2006529578028404       0
1.768                     1.4086081847136347       0
1.708                     1.3729588829747825       0
1.708                     1.585370272602935        0
-1.7079999999999997       2.222604441487391        0
-1.7679999999999998       2.240429092356818        0
-1.768                    3.4881604538215916       0
-1.708                    3.497072779256305        0
-1.768                    0.4159999999999999       0
-1.768                    0.577905143670512        0
-1.7079999999999997       0.5467445048999388       0
-1.708                    0.4159999999999999       0
-1.768                    0.7847425039812491       0
-1.7080000000000002       0.7371122172877953       0
-1.768                    0.9926977308920444       0
-1.7079999999999997       0.9481361037184788       0
1.7079999999999997        0.5467445048999388       0
1.768                     0.4159999999999999       0
1.7679999999999998        0.5779051436705127       0
1.708                     0.4159999999999999       0
1.7080000000000002        0.7371122172877953       0
1.768                     0.7847425039812491       0
1.768                     0.9926977308920444       0
1.7079999999999997        0.9481361037184788       0
1.708                     1.1605474933466304       0
-1.708                    3.2846613896281522       0
-1.7679999999999998       3.2802052269107955       0
-1.708                    3.07225                  0
-1.768                    3.07225                  0
-1.7679999999999998       2.864294773089204        0
-1.7080000000000004       2.4350158311155443       0
-1.7680000000000002       2.4483843192676136       0
-1.708                    2.859838610371848        0
-1.7680000000000002       2.656339546178409        0
-1.7079999999999997       2.6474272207436957       0
1.6800000000000002        5.601807862724624        0
1.6799999999999997        5.7285                   0
1.6800000000000004        5.4175180246614225       0
1.6800000000000002        5.205343278258325        0
1.6800000000000002        4.992220939112511        0
1.68                      4.565976260820884        0
-1.6800000000000002       5.601807862724624        0
-1.6799999999999997       5.7285                   0
1.68                      4.779098599966698        0
1.6800000000000004        4.352853921675073        0
-1.6800000000000002       1.1560188344878757       0
-1.6800000000000004       1.369141173633689        0
-1.6800000000000004       5.4175180246614225       0
-1.6800000000000002       5.205343278258325        0
-1.6800000000000002       1.5822635127795035       0
1.6800000000000004        4.139731582529259        0
1.68                      3.9266092433834463       0
-1.6800000000000002       4.992220939112511        0
-1.68                     4.779098599966698        0
-1.68                     4.565976260820884        0
1.6800000000000004        3.7134869042376333       0
1.6800000000000004        3.5003645650918207       0
-1.6800000000000002       1.7953858519253152       0
-1.6800000000000004       4.352853921675073        0
1.6800000000000002        3.287242225946007        0
1.68                      3.074119886800194        0
1.6800000000000002        2.8609975476543807       0
-1.6800000000000004       4.139731582529259        0
-1.68                     3.9266092433834463       0
-1.6800000000000002       2.008508191071129        0
1.6800000000000002        2.6478752085085677       0
1.6800000000000002        2.434752869362755        0
1.68                      2.2216305302169412       0
-1.6800000000000004       3.7134869042376333       0
1.6800000000000002        2.008508191071129        0
-1.68                     2.2216305302169412       0
-1.6800000000000004       3.5003645650918207       0
-1.6800000000000002       0.7298615848112557       0
-1.6800000000000002       0.9428964953420633       0
1.6800000000000002        1.1560188344878757       0
1.6800000000000002        1.7953858519253152       0
1.6800000000000004        1.369141173633689        0
1.6800000000000002        1.5822635127795035       0
-1.6800000000000002       3.287242225946007        0
-1.6800000000000002       2.434752869362755        0
1.6800000000000002        0.7298615848112557       0
1.6800000000000004        0.5426931994663187       0
1.6799999999999997        0.4159999999999999       0
1.6800000000000002        0.9428964953420633       0
-1.6800000000000002       2.6478752085085677       0
-1.68                     3.074119886800194        0
-1.6800000000000002       2.8609975476543807       0
-1.6800000000000004       0.5426931994663187       0
-1.6799999999999997       0.4159999999999999       0
1.65                      5.7285                   0
1.65                      5.591506161505568        0
1.6499999999999995        5.397635900320716        0
1.6499999999999997        5.18738450705519         0
-1.65                     5.7285                   0
-1.65                     1.168628943650333        0
-1.6499999999999997       1.380142394355851        0
1.65                      4.975871056349671        0
1.65                      4.764357605644153        0
1.6499999999999997        4.552844154938635        0
-1.65                     0.4159999999999999       0
-1.65                     0.5529938384944344       0
-1.65                     0.9571154929448137       0
-1.65                     5.591506161505568        0
-1.6499999999999995       5.397635900320716        0
-1.6499999999999997       1.5916558450613705       0
1.6500000000000001        4.341330704233115        0
1.6500000000000001        4.129817253527597        0
-1.6499999999999997       5.18738450705519         0
1.65                      3.918303802822078        0
-1.6499999999999997       1.8031692957668892       0
-1.65                     4.975871056349671        0
-1.65                     4.764357605644153        0
-1.6499999999999997       4.552844154938635        0
1.65                      3.706790352116559        0
1.6500000000000001        3.495276901411041        0
-1.6500000000000001       4.341330704233115        0
-1.6500000000000001       4.129817253527597        0
-1.65                     2.0146827464724084       0
1.6500000000000004        3.2837634507055222       0
1.65                      3.0722500000000026       0
1.6499999999999997        2.8607365492944834       0
1.6499999999999997        2.6492230985889647       0
-1.65                     3.918303802822078        0
1.65                      2.4377096478834464       0
1.65                      2.2261961971779267       0
1.65                      2.0146827464724084       0
-1.65                     2.2261961971779267       0
-1.65                     3.706790352116559        0
-1.65                     2.4377096478834464       0
1.6499999999999997        1.5916558450613705       0
1.6499999999999997        1.8031692957668892       0
-1.6500000000000001       3.495276901411041        0
-1.6500000000000004       3.2837634507055222       0
-1.6499999999999997       2.6492230985889647       0
1.65                      0.4159999999999999       0
1.65                      0.5529938384944344       0
1.65                      0.7468640996792875       0
1.65                      1.168628943650333        0
1.65                      0.9571154929448137       0
1.6499999999999997        1.380142394355851        0
-1.65                     3.0722500000000026       0
-1.65                     0.7468640996792875       0
-1.6499999999999997       2.8607365492944834       0
1.5366363341150195        5.728500000000001        0
1.5466628695257145        5.56726025297326         0
1.5501096532255663        5.569581538947945        0
1.5517377032309891        5.564743942054773        0
1.547888337554284         5.563509767764646        0
1.35                      5.7285                   0
1.5482889740080963        5.55982832776555         0
-1.476403001653462        1.2626886321460529       0
1.3500000000000003        5.50448483109835         0
1.5107253765924908        5.291518892969747        0
1.3499999999999999        5.234444272950294        0
1.5000000000000002        5.105157664649983        0
-0.9919747561494253       0.8921190430248385       0
-1.2079026015830148       0.9551336920606808       0
-1.1684431116364675       0.9920097926227025       0
-1.0726077055654601       1.1773945568783086       0
-1.214224622245143        0.9951179887355769       0
-1.518554158400467        0.41600000000000004      0
-1.5257011696187939       0.6505004020003115       0
-1.4445710159112846       0.9589797832997567       0
-1.4382028786852112       0.9313181842504535       0
-1.4434051252179647       0.9801480036292659       0
-1.5366363341150195       5.728500000000001        0
-1.5319122916616776       5.600223885084534        0
-1.5075683257641292       5.588896686177691        0
-1.35                     5.7285                   0
-1.4139377674030895       0.9777016812853329       0
-1.4312418766109523       1.0335801370839452       0
-1.5153136065893207       5.565676042249428        0
-1.4056155241689572       1.5412977724305372       0
-1.1612310483379147       1.4909396997997033       0
-1.25                     1.8049999999999997       0
-1.35                     1.8049999999999997       0
-1.5431378112261394       1.7332750469427534       0
1.35                      4.9285                   0
1.4919275486559969        4.702896921790442        0
1.5000000000000002        4.428922077469318        0
1.35                      4.600079039564452        0
-1.3500000000000003       5.50448483109835         0
-1.51227905094079         5.535004827483268        0
-1.495478514907266        5.302148263706037        0
1.35                      4.305                    0
1.50254504535594          4.169673311494413        0
1.4921846490704915        4.104214076224935        0
-1.4897927781527478       1.751206285207065        0
-1.3499999999999999       5.234444272950294        0
-1.4964762323967524       5.078023635895159        0
-1.4878878575408905       5.100143288212413        0
-1.4958677843879653       5.064986517732148        0
-1.4794652511127968       5.084255232399705        0
1.35                      3.99167146746909         0
1.5431378112261396        3.8722552074692427       0
1.4909847395781266        3.9073468641396425       0
-1.35                     2.112942463355499        0
-1.492157338266431        2.0116855281316495       0
1.4909848695073473        3.8460758996128783       0
-1.56711049769481         4.868341973441746        0
-1.35                     4.9285                   0
-1.4860015102428203       5.0703075518438165       0
-1.5106432277491257       4.6027225763264745       0
-1.510208099672096        4.75771079812659         0
-1.496615623054626        4.419102936666156        0
-1.5116414930702424       4.396947451258169        0
1.35                      3.678342445910996        0
1.4904006297753507        3.499865736858334        0
1.492142084113687         3.3710011528314716       0
1.5431378112261398        3.240344641935102        0
-1.4941002037040159       2.141775794716275        0
-1.35                     2.4251666328046473       0
-1.4925915423310212       2.2074695523076353       0
-1.35                     4.600079039564452        0
-1.4953754509039558       4.381427542182533        0
-1.4948421578252977       4.393433741383319        0
-1.35                     4.305                    0
-1.492178201901896        4.104208440023507        0
1.5000000000000002        2.9562150753108445       0
1.3500000000000003        3.36502047509978         0
1.490950437743966         3.278411778873231        0
1.35                      3.0516936013272047       0
1.4909504377439662        3.2172836003285368       0
1.5044418685260725        2.6952013198584814       0
1.5431378112261394        2.6084328807960437       0
1.52872780602946          2.238184992515976        0
-1.5287226397427955       2.238189356323469        0
-1.49523562111882         2.3128540234411146       0
-1.35                     3.9916721701320665       0
-1.5431378112261394       3.872255441690235        0
-1.4909793940544345       3.907192817001273        0
-1.35                     2.738360850660335        0
-1.4948533584196046       2.6409136119482706       0
1.35                      2.738365895915721        0
1.3500000000000003        2.4251721481246675       0
1.4922006234466005        2.011664414604995        0
1.4941259875897188        2.1415088995113134       0
1.35                      2.1129473702419457       0
1.4926115524231152        2.2071037899190977       0
-0.8573999999999999       0.4159999999999999       0
-1.0794411494895597       0.41600000000000004      0
-0.9201203701307057       0.637901666101758        0
-1.153872749221701        0.6071655667376354       0
-1.0920536612493754       0.6680420532937148       0
-1.188908697771415        0.5467234905465459       0
-1.35                     3.6783443402641343       0
-1.489931072767522        3.4987346332104816       0
-1.490979747532619        3.84594334773141         0
-1.4948533584196046       2.562615057484349        0
1.518554158400467         0.41600000000000004      0
1.5431378112261396        1.7332750469427531       0
1.4056150074203662        1.541295944198767        0
1.35                      1.8049999999999997       0
1.25                      1.8049999999999997       0
1.4897940251252269        1.751206285207065        0
-1.2966342006221423       1.2384088200357268       0
-1.4070031334985693       0.5695301409123951       0
-1.3169218821526323       0.41600000000000004      0
-1.435701025095389        0.5953176660417937       0
-1.3902948665972623       0.6199207020779707       0
-1.5000000000000002       2.9562126149113763       0
-1.35                     3.051688680528269        0
-1.35                     3.3650165103962006       0
-1.4948533584196046       3.271511617874482        0
1.5169623324628225        0.640663447629798        0
1.4777083924767518        0.9609135559593791       0
1.4661993842549064        0.9333483259886188       0
1.4870718179112163        1.290623467875238        0
1.487083566768034         1.2633236251274809       0
1.489206538769473         1.235226004438133        0
1.4584207124983295        1.283554459274728        0
1.4595529303955574        1.1108095638375386       0
1.4654083943389917        1.2440584600252784       0
1.4499555635687136        0.5892190370706878       0
1.3169218821526323        0.41600000000000004      0
1.4644053250816207        0.9895754952045515       0
1.1612300148407324        1.490936043336163        0
1.0726069811022099        1.1773919937620212       0
1.317340509543026         1.1304041983475688       0
0.9919743073839015        0.8921174553139052       0
1.2664014859086197        1.0098691935349424       0
0.9201201802390613        0.6379009942742127       0
1.0794411494895597        0.41600000000000004      0
0.8573999999999999        0.4159999999999999       0
1.0921818006661297        0.6661807852475601       0
1.1481474198741237        0.60931415217816         0
1.1921045826079404        0.5453859214079463       0
1.2080603346395011        0.6097982774517215       0
1.2628672481005006        0.6933307098578418       0
-1.2464014702716073       0.6572864493678728       0
-1.1893064258127637       0.8770882960462327       0
-1.4085139169483791       0.9560329773394041       0
-1.4982770571419786       5.376604242489991        0
-1.4938636101307923       1.8782990282926764       0
1.4934650793312567        4.001064129423817        0
-1.4960504963515588       4.3442384486556485       0
-1.4916436543079725       2.47404443274889         0
-1.4934651007365116       4.0010645259493725       0
1.4933204504296986        1.8707520611798545       0
-1.3143750783387718       0.7555200324397435       0
-1.4432252499383422       0.7242948951281085       0
-1.4053762500713303       1.2324047390255901       0
-1.3152605992589095       1.1499111481846231       0
-1.493493738836225        3.3772770080087913       0
1.448363725709247         1.2505037908633807       0
1.3903702092481           0.603069485752777        0
1.4050902150700915        0.7513619694246051       0
1.3794411345054467        0.6602232979454126       0
1.4431481494116394        0.9594464342197943       0
1.354324924550438         0.8092125764402152       0
1.3142375125441734        0.9166833551815918       0
1.2520993973554897        0.8980432061661734       0
1.3135142476676962        0.7699063359465409       0
1.4316014166545417        0.9942675218219127       0
1.00053358766356          5.627031179487702        0
1.1110671753271195        5.7284999999999995       0
0.89                      5.7285                   0
0.89                      5.525562358975404        0
1.068711654899741         5.383592605877034        0
0.8900000000000001        5.322624717950805        0
1.049221971281041         5.163534221090218        0
0.8900000000000001        5.121606029324618        0
1.0444012634706594        5.131932922465038        0
1.0881528030304708        5.133272418981901        0
1.088095125397538         5.23702683124445         0
1.1221945806013873        5.162171672536614        0
1.0833875623320757        5.479784695549209        0
1.098015362851572         4.924474375642238        0
0.89                      4.9285                   0
1.110158769568639         5.054372163515695        0
-1.00053358766356         5.627031179487702        0
-0.89                     5.7285                   0
-0.8900000000000002       5.525562358975403        0
-1.1110671753271195       5.7284999999999995       0
1.0836451129760354        4.853310351426181        0
0.9920837449641684        4.751696625041225        0
1.1138695647945887        4.81592449126126         0
1.1301844570142177        4.88861731510324         0
1.1109970968944807        4.656662382490571        0
1.1117242674177332        4.544485886847342        0
-1.1106962750033467       5.46600801681825         0
-0.8900000000000001       5.322624717950805        0
-1.115341320006994        5.5294044330956655       0
-1.0648396125179411       5.308036589343523        0
-0.8900000000000001       5.121606029324617        0
1.25                      4.305                    0
-1.1141002776424158       5.229030621634816        0
-1.1670178019647826       5.3048233103640685       0
-1.1127612794974286       5.060976560487087        0
-0.89                     4.9285                   0
-1.040786628219088        4.879262051674786        0
-0.9918876210623848       4.752036300743342        0
-1.25                     2.0779383691925126       0
1.25                      3.956922588575949        0
-1.1112151570179243       5.148499941445333        0
-1.1098178103936684       4.928701154877031        0
-1.1369084341641542       4.780726463391297        0
-1.117232358156301        4.726564207935563        0
-1.1711206020294824       4.707185750699208        0
-1.1120457244288724       4.5439291411627725       0
1.25                      3.632884977752485        0
-1.25                     2.341025586229074        0
-1.25                     4.305                    0
1.25                      3.3049999999999997       0
-1.25                     3.956922588575949        0
-1.25                     2.640790736649854        0
1.2500000000000002        2.968600344155618        0
1.2500000000000002        2.3410279488030086       0
1.2500000000000004        2.0779412567767284       0
-1.25                     3.6328849777524854       0
1.25                      2.6407924457845318       0
-1.2500000000000002       2.9685994802768048       0
-1.25                     3.3049999999999997       0
1.088358951362643         5.167021854513537        0
1.05                      4.305                    0
-1.05                     4.305                    0
0.7999999999999998        5.527402513447472        0
0.8259107610097072        5.728500000000001        0
0.7999999999999999        5.7285                   0
-0.8                      5.527414046164956        0
-0.7999999999999999       5.7285                   0
-0.8259486481648045       5.728500000000001        0
0.8259818608170868        5.525780376208362        0
0.8                       5.327449807390323        0
-0.7999999999999999       5.327414046164954        0
-0.8259984993541478       5.525802142692993        0
0.8258894508360693        5.323092061792153        0
0.7999999999999999        5.127974903695162        0
0.8385630332139076        5.122265388266348        0
0.7999999999999999        4.9285                   0
-0.8                      5.127957023082477        0
-0.8258812843921614       5.3231358294945466       0
-0.8385860445814284       5.122317685192296        0
-0.7999999999999999       4.9285                   0
0.8798047143849579        4.729467042323916        0
0.964902357192479         4.517233521161957        0
-0.8797926984388361       4.729497010093543        0
-0.9625110602437317       4.523197415752133        0
1.0499999999999998        4.0013298910179875       0
1.0499999999999998        3.694952667019981        0
-1.05                     4.000607081617893        0
1.0499999999999998        3.3885754430219746       0
-1.05                     3.6924211482758516       0
1.05                      3.06363090829772         0
-1.05                     3.384235214933809        0
1.1336293077641089        2.970436008615877        0
1.133271795632072         2.9695592785180835       0
1.05                      2.738686373573466        0
1.1334917687098345        2.969208339730692        0
-1.05                     3.0632408352914426       0
-1.1339594600800331       2.9704079251972693       0
-1.1335962706122606       2.9696182209413933       0
1.1052382156272698        2.6477736127363967       0
1.1049302936820464        2.646701221671863        0
1.05                      2.423696878739632        0
1.1052566178000724        2.6460195625027523       0
-1.0500000000000003       2.742246455649077        0
-1.1338200342441764       2.9691607458990354       0
-1.10548919013094         2.647860169333192        0
-1.1051263348205524       2.646561359035373        0
1.05                      2.1143484393698158       0
1.1061109258805946        2.3514842386340677       0
1.1088737398466677        2.092937979907114        0
1.05                      1.8049999999999997       0
-1.0499999999999998       2.4219743971865393       0
-1.105511155668703        2.645802988713238        0
-1.1063160570250132       2.351256568036037        0
-1.05                     2.113487198593269        0
-1.108397816085354        2.0929233526811633       0
-1.05                     1.8049999999999997       0
1.034864687302608         1.5054147041526802       0
1.035050041091831         1.505492915920948        0
1.0347515122049675        1.5048117341418041       0
1.034856147702951         1.504843826938401        0
0.9938176307452774        1.541271338645456        0
0.9570603839184726        1.187003238611076        0
0.9572276722315384        1.1874008234899027       0
0.9571658073199504        1.1874643712460426       0
0.94086786139312          1.2927169972120427       0
-1.0349504780439294       1.5055407728411103       0
-1.0347474634142615       1.5054243099821736       0
-0.9938655976491751       1.541496502651924        0
0.8932844049206357        1.0693529517903446       0
0.9570989415447009        1.1868211277063856       0
-1.0346330556525676       1.504812817455531        0
-0.940933119393703        1.293023328279329        0
-0.9573567657685038       1.187427224595561        0
-1.034747884785035        1.5048609932551222       0
0.7999004742240758        0.630994453184323        0
0.7541                    0.4159999999999999       0
0.7627774985546691        0.41600000000000004      0
0.8457009484481515        0.8459889063686463       0
0.8876994932142528        0.8980104638990768       0
0.8877592477648473        0.8980991518110838       0
0.8876805573100447        0.8977583007017583       0
-0.9572542730932491       1.1869809003160574       0
-0.9574187496178165       1.187380386128205        0
-0.8935198416854125       1.0704581280873202       0
-0.9572817860723163       1.186781207080518        0
0.8229221697334644        0.6404754755412392       0
0.8229338541003426        0.6407289745027094       0
0.823014667415986         0.6408605940139289       0
-0.8879627490269563       0.8980009764544186       0
-0.8880205704648013       0.8980876478137997       0
-0.846106563977122        0.847892927895311        0
-0.8879455619217047       0.8977626226140714       0
-0.8230465023142782       0.6407265194822401       0
-0.8231316750046856       0.6408646215603528       0
-0.8001032819885612       0.6319464639476555       0
-0.7541                   0.4159999999999999       0
-0.762786652925396        0.41600000000000004      0
-0.8230350086569237       0.6404627431920864       0
0.8259837864469702        5.5258955410326065       0
-0.826000454924158        5.525917257421886        0
0.8258879111039319        5.323250677250202        0
-0.8258797408415303       5.3232944483419695       0
-0.8385813539485654       5.122374525369043        0
-0.8385895992959972       5.122373217736625        0
0.8350531191658427        5.1780094431407075       0
0.8385583460698977        5.122322248105146        0
0.8385665811851976        5.122320941006625        0
-0.8350689800476132       5.178035677251           0
1.1337053786083573        2.969232398588359        0
-1.134037181030089        2.9691851078295115       0
1.1060994611012485        2.3520161537392275       0
1.108867998841445         2.093195089554216        0
-1.106297954813721        2.3521103846445          0