% Model:              scaling.mph
% Version:            COMSOL 5.3.1.180
% Date:               Mar 20 2018, 16:21
% Dimension:          2
% Nodes:              1330
% Expressions:        19
% Description:        , , , , , , , , , , , , , , , , , , 
% Length unit:        m
% cpl1x                   cpl1y                    PdensityN (W/m^3)        Tp221 (K)                Tp231 (K)                Tp241 (K)                Tp31 (K)                 Flux1 (1/(m^2*s))        Flux2 (1/(m^2*s))        Flux3 (1/(m^2*s))        Flux4 (1/(m^2*s))        Flux5 (1/(m^2*s))        Flux6 (1/(m^2*s))        Flux7 (1/(m^2*s))        Flux8 (1/(m^2*s))        Conc1 (1/(m^2*s))        Conc2 (1/(m^2*s))        Conc3 (1/(m^2*s))        Conc4 (1/(m^2*s))        Conc5 (1/(m^2*s))        Conc6 (1/(m^2*s))
0.025                     0.48                     0                        NaN                      NaN                      NaN                      NaN                      7.454937741219125E-4     0.007116944242708364     0.030360580258824023     0.01873244309919224      0.06035568027541057      0.29039032418265165      0.40844322900595054      0.11777136955121079      -1.0305624852831675E-5   -1.901901435135385E-5    -5.389859815550317E-6    -5.301528025998444E-6    -3.6275339402399223E-7   -2.1253229169619782E-8
0.07500000000000001       0.48                     0                        NaN                      NaN                      NaN                      NaN                      9.862665081327398E-4     0.008980887128548427     0.03609974464489561      0.021797523847049326     0.06093356046246527      0.28723132705367815      0.40288296577618143      0.1161088746150035       6.055451991509738E-6     1.1182384185246628E-5    3.1690431651387485E-6    3.117076587375088E-6     2.1327463947193642E-7    1.2506100686834375E-8
0.125                     0.48                     0                        NaN                      NaN                      NaN                      NaN                      0.0011394493962405738    0.01006052028987706      0.039072869660253966     0.02330298369743363      0.061064733798959825     0.2851954413750376       0.40019571298201084      0.11544599549718879      1.4403285268173688E-5    2.6581266192644026E-5    7.53298830094853E-6      7.409486177151806E-6     5.0697417868411E-7       2.9705921546052402E-8
0.17500000000000002       0.48                     0                        NaN                      NaN                      NaN                      NaN                      0.0019801590106153493    0.015912618001758853     0.05490432543178254      0.031222183896884144     0.061272506017428355     0.2728881577146369       0.38679838680281226      0.11271646483159418      -1.570100877909501E-5    -2.8911639466301364E-5   -8.193368160989297E-6    -8.059053433677822E-6    -5.514474798355063E-7    -3.2272866704171964E-8
0.225                     0.48                     0                        NaN                      NaN                      NaN                      NaN                      0.0030978547902014903    0.023572980141417472     0.07183326540775448      0.039013387739066284     0.06128191248620349      0.259719050692158        0.3728748767161737       0.10980666467750493      3.3161252906985044E-4    6.105458724586432E-4     1.730249155714531E-4     1.7018792543524702E-4    1.1645229853078885E-5    6.814961641443037E-7
0.275                     0.48                     0                        NaN                      NaN                      NaN                      NaN                      0.005283588309893289     0.03610770831225661      0.09488880632986879      0.048673998221234874     0.06165616424976171      0.2434101790775134       0.35153064284308677      0.10423621329163515      5.360478062695245E-4     9.871511665048393E-4     2.7975252165549053E-4    2.751657201154833E-4     1.882835326231693E-5     1.1019854984859232E-6
0.32500000000000007       0.48                     0                        NaN                      NaN                      NaN                      NaN                      0.010193209297508271     0.05919028799106111      0.1274538368701329       0.05995101810209967      0.06332035499074452      0.2251936369940502       0.314264181885404        0.09171080090969697      -5.498535351264723E-4    -0.0010110688154602331   -2.865305705335656E-4    -2.8183178655774636E-4   -1.9284887247251858E-5   -1.1278193485659911E-6
0.37500000000000006       0.48                     0                        NaN                      NaN                      NaN                      NaN                      0.012020401056050666     0.06766147751605169      0.13916335279674075      0.06393899488541255      0.06393633135444558      0.21873327816640173      0.30064850872008436      0.08708442249998959      -0.0011421672589861961   -0.0021012753795134464   -5.9548832854463E-4      -5.85723580420953E-4     -4.007898809493927E-5    -2.3445264112780055E-6
0.42500000000000004       0.48                     0                        NaN                      NaN                      NaN                      NaN                      0.02358222270119417      0.10642739641481296      0.17616630947642412      0.06842654169839321      0.06570732050024744      0.1842416084447012       0.2408766461059355       0.06741949599613523      0.002650793445402485     0.0048869158885577425    0.0013849220276450933    0.0013622179057444983    9.320908272214322E-5     5.4585745791079145E-6
0.47500000000000003       0.48                     2053459.5246292357       883.2380667888214        883.1483318791047        880.4576972767733        880.282042066319         0.036388745721935706     0.1493667054644142       0.21715286255587912      0.07339720059030164      0.06766896754526316      0.14603669784565942      0.17466997400403256      0.04563751892519622      0.006852089752193841     0.012627429026942867     0.0035785357673719944    0.003519867301427227     2.408464360475336E-4     1.4101727495112631E-5
0.525                     0.48                     2053459.5246292348       880.9955866892868        880.9058517940142        878.2152176247788        878.039562442599         0.036388745721935685     0.14936670546441408      0.217152862555879        0.0733972005903016       0.06766896754526312      0.14603669784565934      0.17466997400403245      0.04563751892519619      0.006852089752193836     0.01262742902694286      0.0035785357673719926    0.0035198673014272246    2.4084643604753347E-4    1.4101727495112623E-5
0.5750000000000001        0.48                     1283532.9858073096       877.7798199539304        877.7237303427895        876.0419250226129        875.9321301559287        0.04973523651125153      0.19693234901457812      0.24864111150234675      0.06865263424395698      0.06635785019679401      0.09664573216950934      0.1008272836649576       0.023313269619785436     0.010730048547491036     0.019776135336259333     0.005604435326793725     0.005512554344259285     3.771951988804937E-4     2.208634196303748E-5
0.6250000000000001        0.48                     1561589.987079022        879.2070547395366        879.1388142235435        877.0926730484848        876.9590929040786        0.03037756623378502      0.12723739710702622      0.18772247695810768      0.05997304045012461      0.05968557328974085      0.10997930773898304      0.13088321464044705      0.034253290333561004     0.005982605255050288     0.01102623584816353      0.0031247675190282263    0.0030735390130058895    2.1030618282476818E-4    1.2314255044255374E-5
0.675                     0.48                     1623661.9011713425       879.4865584061542        879.4156053835784        877.2881317138047        877.1492418642218        0.026410538595191        0.11295887776427004      0.17533075728235617      0.05828872819931646      0.05837022891455919      0.11306557745295699      0.13751017598280194      0.03662535329960604      0.005004374567604834     0.009223270471322039     0.002613818197270947     0.002570966353302137     1.759177769554541E-4     1.0300655436960587E-5
0.7250000000000001        0.48                     1623661.9011713436       879.4173943142898        879.3464412926924        877.2189676522551        877.0800778045875        0.026410538595191022     0.11295887776427012      0.1753307572823563       0.0582887281993165       0.05837022891455924      0.11306557745295708      0.13751017598280202      0.03662535329960607      0.005004374567604837     0.009223270471322046     0.002613818197270949     0.0025709663533021393    1.7591777695545423E-4    1.0300655436960594E-5
0.775                     0.48                     0                        NaN                      NaN                      NaN                      NaN                      0.026410538595191015     0.11295887776427009      0.17533075728235625      0.058288728199316485     0.05837022891455922      0.11306557745295705      0.137510175982802        0.036625353299606055     0.005004374567604836     0.009223270471322044     0.0026138181972709487    0.002570966353302139     1.759177769554542E-4     1.0300655436960592E-5
0.8250000000000001        0.48                     0                        NaN                      NaN                      NaN                      NaN                      0.02641053859519102      0.11295887776427012      0.1753307572823563       0.05828872819931649      0.05837022891455922      0.11306557745295706      0.137510175982802        0.03662535329960606      0.005004374567604838     0.009223270471322046     0.0026138181972709487    0.0025709663533021393    1.7591777695545423E-4    1.0300655436960592E-5
0.8750000000000001        0.48                     0                        NaN                      NaN                      NaN                      NaN                      9.349505475824946E-4     0.011811626715981897     0.043840627256956456     0.0241237171360362       0.030400227547360537     0.14878681059235274      0.20917693058645612      0.06066310853283624      -5.451036900651588E-4    -0.0010046489859200864   -2.8471134727101337E-4   -2.800436944194677E-4    -1.916192213271918E-5    -1.122005302506133E-6
0.925                     0.48                     0                        NaN                      NaN                      NaN                      NaN                      6.789465355377673E-4     0.010795198674075017     0.04251928382936302      0.023780393170857957     0.030119157192732487     0.1491457730226519       0.20989710931891453      0.060904663772650754     -6.008703595553205E-4    -0.0011074292793928453   -3.1383865106656106E-4   -3.086934751127567E-4    -2.112227670988226E-5    -1.2367915430460753E-6
0.9750000000000001        0.48                     0                        NaN                      NaN                      NaN                      NaN                      6.789465355377672E-4     0.010795198674075015     0.042519283829363014     0.023780393170857953     0.030119157192732483     0.14914577302265186      0.2098971093189145       0.06090466377265075      -6.008703595553204E-4    -0.001107429279392845    -3.1383865106656106E-4   -3.0869347511275667E-4   -2.1122276709882257E-5   -1.236791543046075E-6
1.025                     0.48                     0                        NaN                      NaN                      NaN                      NaN                      6.78946535537767E-4      0.010795198674075013     0.04251928382936301      0.023780393170857946     0.030119157192732473     0.14914577302265183      0.20989710931891442      0.06090466377265073      -6.008703595553203E-4    -0.0011074292793928448   -3.1383865106656095E-4   -3.0869347511275656E-4   -2.112227670988225E-5    -1.2367915430460747E-6
1.075                     0.48                     0                        NaN                      NaN                      NaN                      NaN                      6.789465355377668E-4     0.010795198674075012     0.042519283829363        0.023780393170857943     0.03011915719273247      0.1491457730226518       0.2098971093189144       0.06090466377265072      -6.008703595553202E-4    -0.0011074292793928446   -3.138386510665609E-4    -3.0869347511275656E-4   -2.112227670988225E-5    -1.2367915430460747E-6
1.125                     0.48                     0                        NaN                      NaN                      NaN                      NaN                      5.099844686570602E-4     0.00810024668206803      0.03243270623786088      0.018499306442236216     0.02563531340309401      0.13915326931958144      0.1971182112810526       0.05715419021000942      -3.57228855794615E-4     -6.583876803783765E-4    -1.865830201668221E-4    -1.8352411729196036E-4   -1.2557592862766237E-5   -7.352961741381608E-7
1.175                     0.48                     0                        NaN                      NaN                      NaN                      NaN                      2.750621976809423E-5     -5.384670363240173E-4    -0.0015600345877974887   -3.591560107763024E-5    0.009347317525026034     0.09124556829983477      0.13398172027874428      0.038872957739151504     2.2080575514224387E-4    4.069543305121119E-4     1.1532835976896435E-4    1.1343762374836346E-4    7.761942338866726E-6     4.544914311846083E-7
1.225                     0.48                     0                        NaN                      NaN                      NaN                      NaN                      3.9758231478654774E-5    -1.061143817115295E-4    -0.001092005593266383    -7.420355845312823E-4    0.006867126576021938     0.0628262514565711       0.09303712082795706      0.027200908596897437     -5.866142477864672E-5    -1.0811549506138185E-4   -3.063926584854674E-5    -3.013696098966956E-5    -2.0621166647651605E-6   -1.2074633128424318E-7
1.275                     0.48                     0                        NaN                      NaN                      NaN                      NaN                      -3.3177180616856586E-8   5.098782082688467E-5     -5.093333937501604E-5    -2.4951061646367236E-4   0.005894744887790638     0.05178328800561396      0.07640012047580808      0.022329737044705256     2.134498216700321E-6     3.9342606733111225E-6    1.1149502717937555E-6    1.0966580244915046E-6    7.50375079689514E-8      4.3912137503463675E-9
1.325                     0.48                     0                        NaN                      NaN                      NaN                      NaN                      7.085571515226974E-6     4.9528833212431367E-5    -1.3739230926422294E-4   -2.911285076579072E-4    0.005606785143266943     0.05005526861865689      0.0737998373675159       0.021552546404248755     4.245711571838385E-5     7.825059643591166E-5     2.217574466299521E-5     2.1812172315833535E-5    1.4924920827811607E-6    8.738861940913752E-8
1.375                     0.48                     0                        NaN                      NaN                      NaN                      NaN                      7.085571515226972E-6     4.952883321243136E-5     -1.3739230926422292E-4   -2.911285076579071E-4    0.005606785143266941     0.050055268618656876     0.07379983736751589      0.02155254640424875      4.245711571838383E-5     7.825059643591165E-5     2.2175744662995204E-5    2.1812172315833532E-5    1.4924920827811602E-6    8.73886194091375E-8
1.425                     0.48                     0                        NaN                      NaN                      NaN                      NaN                      3.857851692219454E-6     2.9839533977007244E-5    -5.598402955778923E-5    -1.2887331780091785E-4   0.004264686492070511     0.038448438756770176     0.05663838265430807      0.016535121371520765     4.772857071920829E-5     8.796590465777448E-5     2.492900208497636E-5     2.452029632690731E-5     1.6777956549486678E-6    9.824051082975223E-8
1.475                     0.48                     0                        NaN                      NaN                      NaN                      NaN                      1.3989263403897134E-7    1.2271963920526326E-5    4.196475581512956E-5     4.1516351854036616E-5    0.002617162315494473     0.023804221154833882     0.03504276468677685      0.01023440396692584      2.2999454865255353E-5    4.238893983190741E-5     1.2012771009912883E-5    1.181582448924974E-5     8.084934304142967E-7     4.734194213477352E-8
1.525                     0.48                     0                        NaN                      NaN                      NaN                      NaN                      1.3989263403897131E-7    1.2271963920526328E-5    4.196475581512956E-5     4.1516351854036616E-5    0.0026171623154944727    0.023804221154833882     0.03504276468677685      0.010234403966925838     2.299945486525535E-5     4.2388939831907395E-5    1.201277100991288E-5     1.1815824489249739E-5    8.084934304142965E-7     4.734194213477352E-8
1.575                     0.48                     0                        NaN                      NaN                      NaN                      NaN                      1.4550667442192665E-8    1.2445179293445539E-5    4.0068942986791195E-5    3.0435026474037646E-5    0.0021441599395172753    0.019115233942860566     0.028067548721391007     0.008148484935595852     -1.2780844092779566E-5   -2.355551499094967E-5    -6.675486280261316E-6    -6.566041795705182E-6    -4.492793068051375E-7    -2.6304485393611305E-8
1.625                     0.48                     0                        NaN                      NaN                      NaN                      NaN                      -2.3026383248451274E-8   6.209189009515979E-6     2.3003180736886503E-5    2.0667892238698347E-5    0.0010827775931913377    0.009417697381829732     0.013169349654027121     0.0034682817883296756    7.645975291831286E-6     1.4091958908095361E-5    3.9935982387995796E-6    3.928101932436991E-6     2.68783324044541E-7      1.5733407807479606E-8
1.675                     0.48                     0                        NaN                      NaN                      NaN                      NaN                      -3.9527456480146437E-8   4.590981174757203E-6     1.4508945081956745E-5    1.214411293858248E-5     2.9004231917496056E-4    0.002344842585354428     0.002724735856763928     5.058481952281029E-4     2.268509775971888E-6     4.180809785217616E-6     1.1848221557215542E-6    1.165402942588959E-6     7.974661207166762E-8     4.667809319552739E-9
1.725                     0.48                     0                        NaN                      NaN                      NaN                      NaN                      -4.903787402906577E-8    2.5738325978327907E-6    1.0734764218094557E-5    8.756814727739387E-6     1.0151180142219023E-4    6.864928066091649E-4     5.853397539467855E-4     5.38224694558286E-5      8.49425586363557E-8      1.5640390298844803E-7    4.433173111217632E-8     4.360458643236448E-8     2.9782559968541146E-9    1.7599188129474678E-10
0.025                     0.62                     0                        NaN                      NaN                      NaN                      NaN                      0.0022642019616003943    0.022001194894518676     0.0955765942727856       0.05927517711825671      0.1925728251473555       0.926762407718657        1.3023721145563658       0.3752808588021675       -1.4204520299789877E-5   -2.6212722390485632E-5   -7.428518950554152E-6    -7.306772214534868E-6    -4.999594751291566E-7    -2.9293652462685122E-8
0.07500000000000001       0.62                     0                        NaN                      NaN                      NaN                      NaN                      0.002799057033241779     0.026188056358977536     0.10862082229473552      0.06624871246558275      0.19377030336163995      0.919305049455449        1.290063530774076        0.37174430556579086      4.5354914300727196E-5    8.373454443142835E-5     2.372988220860588E-5     2.3340891482225988E-5    1.5970546680092458E-6    9.35944205132939E-8
0.125                     0.62                     0                        NaN                      NaN                      NaN                      NaN                      0.003920888520352079     0.03453749587810277      0.1328637433230126       0.07877154561652665      0.1946912525508293       0.9020945373913322       1.2689778506935405       0.3669133466508404       8.47837795409037E-6      1.5621654324055135E-5    4.427092623682567E-6     4.354482511212127E-6     2.979512152191705E-7     1.7437366068616687E-8
0.17500000000000002       0.62                     0                        NaN                      NaN                      NaN                      NaN                      0.005641665787565655     0.04717420320486965      0.1690171448944891       0.09724752926678643      0.1952335465576127       0.8741287360732033       1.238782139631938        0.3609079420336179       -1.608449257150915E-4    -2.968783433147907E-4    -8.413353538638368E-5    -8.275446349049524E-5    -5.662344602937638E-6    -3.318152546739342E-7
0.225                     0.62                     0                        NaN                      NaN                      NaN                      NaN                      0.01024520518719453      0.07609094110761652      0.22899569116846796      0.12412330237689646      0.1960612828667183       0.8302978561786922       1.187005015775906        0.3486742247235053       5.675272859863752E-4     0.001044369301274956     2.959677551703935E-4     2.9111466602212285E-4    1.9919873842196733E-5    1.165424653243485E-6
0.275                     0.62                     0                        NaN                      NaN                      NaN                      NaN                      0.016215400133821924     0.1131042704627233       0.3022755562468756       0.15617437237768617      0.19703871994291888      0.7776309106975013       1.12340654966825         0.3331566871622975       0.0022902019769524854    0.004217813216458458     0.0011953021803703047    0.0011757042488112217    8.0448107559898E-5       4.708678367475021E-6
0.32500000000000007       0.62                     0                        NaN                      NaN                      NaN                      NaN                      0.02995816949799895      0.17895888558381257      0.3950935409793243       0.18850599235056875      0.20065431973091485      0.727647132549826        1.019061868434987        0.2980724264350345       -0.005149346935350417    -0.009479983828096136    -0.002686568610990132    -0.0026425182440065857   -1.8081643768420324E-4   -1.0581249030726034E-5
0.37500000000000006       0.62                     0                        NaN                      NaN                      NaN                      NaN                      0.05346848298314921      0.2680396795420825       0.4955593985180337       0.2115806223699168       0.20515752490291045      0.6529285552061798       0.8800017494415888       0.2518639044095556       -0.003374717054240156    -0.006205793111370043    -0.0017586828697289995   -0.0017298426595745162   -1.183677292769008E-4    -6.922565639325005E-6
0.42500000000000004       0.62                     0                        NaN                      NaN                      NaN                      NaN                      0.09272770013510159      0.3990578770025016       0.618278246202408        0.2251637121673195       0.21173522424716998      0.5376421069445464       0.6813637539329137       0.18654545290257643      0.01170799332242183      0.021582541592190682     0.0061163599832706785    0.006016088577554792     4.116483679671606E-4     2.410610123624659E-5
0.47500000000000003       0.62                     5815598.85477119         901.5373124607258        901.2831743799659        893.6630328317018        893.1655600175972        0.13121288911527249      0.5293839722536833       0.7298232074991448       0.23107354654322285      0.21603744914346892      0.4195526716333438       0.48623284570508873      0.12375695003617597      0.026470186500289872     0.04878338458537545      0.01382491148059987      0.013598259753800945     9.304583733914843E-4     5.448053390268731E-5
0.525                     0.62                     4832784.072905315        889.5534271425988        889.3422374573092        883.0098716401637        882.5964698912534        0.1474125400869148       0.5874364107132335       0.7674795517578743       0.22449081055285702      0.2138478994384633       0.3562192488788296       0.3921458071567531       0.09543949424705453      0.031110213617437897     0.05733690711407885      0.016248927349607423     0.015982536405582195     0.0010936014869304593    6.403423357142627E-5
0.5750000000000001        0.62                     4045331.682191776        888.5927362511387        888.4159577596633        883.1153860243999        882.7693438517177        0.15608741472663734      0.618403667393497        0.7833645713471459       0.2163779139790035       0.2099135862926037       0.30442971565382193      0.3177138373388769       0.07350891430014084      0.03399807811346731      0.0626606503510717       0.017757643569447645     0.017466518903563114     0.001195142306574007     6.998060358776595E-5
0.6250000000000001        0.62                     4375789.715490344        889.1424334515575        888.9512141697744        883.2176460654208        882.8433361865731        0.13512374172542488      0.543171110234885        0.7179326972446318       0.2074510108213498       0.20295421655036694      0.320752205159945        0.3529692935346681       0.08616077427739031      0.028674932451880665     0.05284965373561492      0.014977267348331835     0.014731725049642288     0.0010080147269866157    5.9023439040279454E-5
0.675                     0.62                     4706247.748788909        890.7672791125674        890.5616190383213        884.3950545002662        883.9924769110344        0.11416006872421247      0.467938553076273        0.652500823142118        0.19852410766369621      0.19599484680813017      0.3370746946660681       0.38822474973045923      0.0988126342546398       0.02335178679029402      0.043038657120158155     0.012196891127216032     0.01199693119572147      8.208871473992245E-4     4.806627449279298E-5
0.7250000000000001        0.62                     5030866.745008179        893.6263460351945        893.4065003254327        886.8145900451824        886.3842442128022        0.09342216496515189      0.3933088118290339       0.5877251229962064       0.18971781510978733      0.18911833144126292      0.3532090993449632       0.42288055237868677      0.11121915819750423      0.018229586823304715     0.03359799276420062      0.009521464792750541     0.009365366633287946     6.408230139129206E-4     3.752269079247222E-5
0.775                     0.62                     0                        NaN                      NaN                      NaN                      NaN                      0.07540538402208341      0.3252037795747441       0.5135587992322465       0.17402297011688495      0.17641738865590673      0.37270511174479526      0.4630081369431238       0.12502608257755188      0.014039241830823366     0.025874906544535475     0.007332789578551933     0.00721257327630788      4.935186560161993E-4     2.8897395161844566E-5
0.8250000000000001        0.62                     0                        NaN                      NaN                      NaN                      NaN                      0.04925909190956932      0.2213935920593827       0.37860688592874575      0.13895848573213068      0.14771101199572806      0.40936678936874066      0.5365616854273132       0.1496966875850838       0.008343660660099169     0.01537771333617602      0.004357949507079633     0.004286503762853037     2.933030304514916E-4     1.7174006330226228E-5
0.8750000000000001        0.62                     0                        NaN                      NaN                      NaN                      NaN                      0.02311279979705521      0.11758340454402119      0.243654972625245        0.10389400134737636      0.11900463533554939      0.446028466992686        0.6101152339115024       0.1743672925926157       0.002648079489374972     0.004880520127816565     0.001383109435607333     0.0013604342493981937    9.308740488678377E-5     5.450617498607891E-6
0.925                     0.62                     0                        NaN                      NaN                      NaN                      NaN                      0.0021641420820266324    0.03440969577361411      0.1355302172060946       0.07580000323210971      0.09600481355183477      0.4754021515097028       0.6690470359540398       0.19413361577532423      -0.0019152742710825837   -0.0035299308280646933   -0.0010003607002746632   -9.839604519219117E-4    -6.732725701274968E-5    -3.942273043459364E-6
0.9750000000000001        0.62                     0                        NaN                      NaN                      NaN                      NaN                      0.002164142082026632     0.0344096957736141       0.13553021720609457      0.0758000032321097       0.09600481355183475      0.47540215150970266      0.6690470359540397       0.1941336157753242       -0.0019152742710825833   -0.0035299308280646925   -0.001000360700274663    -9.839604519219114E-4    -6.732725701274968E-5    -3.942273043459363E-6