% Model:              eigen_1st.mph
% Version:            COMSOL 5.3.1.180
% Date:               Apr 26 2018, 15:25
% Dimension:          2
% Nodes:              1330
% Expressions:        19
% Description:        , , , , , , , , , , , , , , , , , , 
% Length unit:        m
% cpl1x                   cpl1y                    PdensityN (W/m^3) @ lambda=1 Tp221 (K) @ lambda=1     Tp231 (K) @ lambda=1     Tp241 (K) @ lambda=1     Tp31 (K) @ lambda=1      Flux1 (1/(m^2*s)) @ lambda=1 Flux2 (1/(m^2*s)) @ lambda=1 Flux3 (1/(m^2*s)) @ lambda=1 Flux4 (1/(m^2*s)) @ lambda=1 Flux5 (1/(m^2*s)) @ lambda=1 Flux6 (1/(m^2*s)) @ lambda=1 Flux7 (1/(m^2*s)) @ lambda=1 Flux8 (1/(m^2*s)) @ lambda=1 Conc1 (1/(m^2*s)) @ lambda=1 Conc2 (1/(m^2*s)) @ lambda=1 Conc3 (1/(m^2*s)) @ lambda=1 Conc4 (1/(m^2*s)) @ lambda=1 Conc5 (1/(m^2*s)) @ lambda=1 Conc6 (1/(m^2*s)) @ lambda=1
0.025                     0.48                     0                        NaN                      NaN                      NaN                      NaN                      7.440699183202061E-4     0.007201288242519457     0.030632282675930513     0.018808215622296943     0.06036642650286008      0.28826806094164514      0.4049309270406878       0.11676632849979338      -1.038310380660335E-5    -1.911165017054336E-5    -5.344488405826054E-6    -5.2522100749269965E-6   -3.6214683177621103E-7   -2.102923293662759E-8
0.07500000000000001       0.48                     0                        NaN                      NaN                      NaN                      NaN                      9.847600726438145E-4     0.009075426066260212     0.03638532259693902      0.021871658406680046     0.06093330983581017      0.2850840722631356       0.39935668430083654      0.11510345474366374      6.062740847732047E-6     1.1223630199411852E-5    3.138616210120067E-6     3.0844289543204638E-6    2.1267599443306423E-7    1.2361026928128073E-8
0.125                     0.48                     0                        NaN                      NaN                      NaN                      NaN                      0.0011379662551101472    0.010159885136515607     0.039363776717624574     0.023376759909648867     0.061050823321306416     0.2830393045580277       0.3966696655009423       0.11443928115896412      1.4499586927455521E-5    2.668895617601401E-5     7.4634517698018095E-6    7.3345829270670304E-6    5.057277032194538E-7     2.9367111992046324E-8
0.17500000000000002       0.48                     0                        NaN                      NaN                      NaN                      NaN                      0.0019788473384494214    0.016034392396760154     0.05521963272569225      0.031298066788435046     0.0611560099004909       0.27069645966780626      0.38329579236625927      0.11169587291339123      -1.6105210216796647E-5   -2.9057032807675715E-5   -8.12590225433446E-6     -7.985530786378883E-6    -5.506006759029889E-7    -3.1875375165990224E-8
0.225                     0.48                     0                        NaN                      NaN                      NaN                      NaN                      0.0030973750143062154    0.023720351409101476     0.0721692343168716       0.03909124183420403      0.06105696596219069      0.25750048657604124      0.3693895574156353       0.10876236287490124      3.402405058093113E-4     6.130645693731606E-4     1.7144598587859203E-4    1.6848419729242642E-4    1.1616931493054886E-5    6.724129867120494E-7
0.275                     0.48                     0                        NaN                      NaN                      NaN                      NaN                      0.005284587910798565     0.0363136167574761       0.09524543875224775      0.04873019685435127      0.06132811834460128      0.2411398877153067       0.3480215335298672       0.10316861360962305      5.491481098326472E-4     9.91374113281791E-4      2.7724102626486817E-4    2.7245181842220414E-4    1.878550388553267E-5     1.087661902743348E-6
0.32500000000000007       0.48                     0                        NaN                      NaN                      NaN                      NaN                      0.010198366897232641     0.05955288857809423      0.1278186418658608       0.05990295112230095      0.0629798773542518       0.22280340407604074      0.31057803422998936      0.09063921628972223      -5.689189155714477E-4    -0.0010135773186860165   -2.834556010527289E-4    -2.785574343963849E-4    -1.920621212391678E-5    -1.1097573120995396E-6
0.37500000000000006       0.48                     0                        NaN                      NaN                      NaN                      NaN                      0.012027115569754273     0.06808276943123216      0.13952977684452988      0.06385105899870562      0.06359431478638965      0.21629914289934657      0.2968960121171753       0.08601299785009886      -0.001177759670018046    -0.0021076963714371177   -5.894315867264136E-4    -5.792472323468707E-4    -3.993861818706143E-5    -2.309300970893527E-6
0.42500000000000004       0.48                     0                        NaN                      NaN                      NaN                      NaN                      0.023607971914057703     0.10692848461049606      0.17640854071677306      0.06818112270434372      0.06476228926442426      0.18102393963056368      0.238023428294315        0.06681685540021143      0.0026899634503203835    0.004904156952776995     0.0013714443756179416    0.0013477590554819858    9.292872929323564E-5     5.388591639347871E-6
0.47500000000000003       0.48                     2006155.8334948958       1073.15                  1073.15                  1073.15                  1073.15                  0.0364355788366675       0.14995618050211848      0.21725753086745203      0.07297734446156344      0.06605600339526553      0.14195114326782407      0.17281284788939286      0.04555412987657558      0.006974070808028518     0.012670879513518994     0.0035434207235777748    0.0034822194496673584    2.4010006582099024E-4    1.3915209844504344E-5
0.525                     0.48                     2006155.8334948947       1073.15                  1073.15                  1073.15                  1073.15                  0.03643557883666748      0.1499561805021184       0.2172575308674519       0.0729773444615634       0.06605600339526549      0.141951143267824        0.17281284788939275      0.045554129876575554     0.0069740708080285145    0.012670879513518987     0.003543420723577773     0.0034822194496673562    2.401000658209901E-4     1.3915209844504335E-5
0.5750000000000001        0.48                     1277494.1692425662       1073.15                  1073.15                  1073.15                  1073.15                  0.04937456544855531      0.19513346482039845      0.24694098225718702      0.06814587004647298      0.06423286066154942      0.09384880077697394      0.10285484837779642      0.024363392795370725     0.011107663214115122     0.02020084783334413      0.005649173962811109     0.005551604886550753     3.827852095269922E-4     2.218798962449426E-5
0.6250000000000001        0.48                     1548099.5001669086       1073.1499999999996       1073.1499999999996       1073.1499999999996       1073.1499999999996       0.030531741328965988     0.12821414554724866      0.18889675097055025      0.06009423857351237      0.05878556565832171      0.10819465574252873      0.1316110851564157       0.034814510626272874     0.006182007775772023     0.011242212508093975     0.0031438888019326627    0.003089589403637714     2.1302831873597466E-4    1.2347992896154383E-5
0.675                     0.48                     1608326.3676702855       1073.15                  1073.15                  1073.15                  1073.15                  0.026670685066906907     0.11450862259852732      0.17709253384348955      0.058535571021581655     0.05771833380178837      0.11147089148800968      0.13794539374025105      0.03707937188865561      0.0051660870897018586    0.009394381388039634     0.002627142295078273     0.0025817677984497035    1.780138264992941E-4     1.0318352273061038E-5
0.7250000000000001        0.48                     1608326.3676702862       1073.1499999999999       1073.1499999999999       1073.1499999999999       1073.1499999999999       0.026670685066906927     0.1145086225985274       0.1770925338434897       0.058535571021581696     0.05771833380178841      0.11147089148800976      0.13794539374025114      0.037079371888655635     0.005166087089701862     0.00939438138803964      0.0026271422950782746    0.0025817677984497057    1.7801382649929425E-4    1.0318352273061045E-5
0.775                     0.48                     0                        NaN                      NaN                      NaN                      NaN                      0.02667068506690692      0.11450862259852737      0.17709253384348966      0.05853557102158168      0.057718333801788396     0.11147089148800973      0.1379453937402511       0.03707937188865562      0.005166087089701862     0.009394381388039639     0.002627142295078274     0.0025817677984497052    1.780138264992942E-4     1.0318352273061043E-5
0.8250000000000001        0.48                     0                        NaN                      NaN                      NaN                      NaN                      0.026670685066906924     0.11450862259852738      0.1770925338434897       0.05853557102158169      0.057718333801788396     0.11147089148800973      0.1379453937402511       0.03707937188865563      0.005166087089701863     0.00939438138803964      0.002627142295078274     0.0025817677984497057    1.7801382649929422E-4    1.0318352273061045E-5
0.8750000000000001        0.48                     0                        NaN                      NaN                      NaN                      NaN                      9.395947585086122E-4     0.012078393276847416     0.04451519132760377      0.02435646759945021      0.03074548963190403      0.14942190526667512      0.20971351461539228      0.060798669353244905     -5.615058235979277E-4    -0.0010210834146541      -2.855463608342434E-4    -2.8061456816122834E-4   -1.9348476041197233E-5   -1.1215109650558612E-6
0.925                     0.48                     0                        NaN                      NaN                      NaN                      NaN                      6.810232059727118E-4     0.011049072594945704     0.04318292250904431      0.024013002020253155     0.030474439703209805     0.14980327474754232      0.2104347119768275       0.061037024413095504     -6.190623660582435E-4    -0.0011257483500352692   -3.1481594944422113E-4   -3.0937862921014565E-4   -2.1331768485019506E-5   -1.2364700733884295E-6
0.9750000000000001        0.48                     0                        NaN                      NaN                      NaN                      NaN                      6.810232059727117E-4     0.011049072594945702     0.043182922509044305     0.024013002020253152     0.030474439703209802     0.1498032747475423       0.21043471197682748      0.0610370244130955       -6.190623660582434E-4    -0.001125748350035269    -3.148159494442211E-4    -3.093786292101456E-4    -2.1331768485019506E-5   -1.2364700733884293E-6
1.025                     0.48                     0                        NaN                      NaN                      NaN                      NaN                      6.810232059727114E-4     0.011049072594945699     0.04318292250904429      0.024013002020253145     0.03047443970320979      0.14980327474754224      0.21043471197682742      0.061037024413095484     -6.190623660582433E-4    -0.0011257483500352688   -3.1481594944422097E-4   -3.0937862921014554E-4   -2.13317684850195E-5     -1.236470073388429E-6
1.075                     0.48                     0                        NaN                      NaN                      NaN                      NaN                      6.810232059727113E-4     0.011049072594945697     0.043182922509044284     0.02401300202025314      0.030474439703209788     0.14980327474754224      0.2104347119768274       0.06103702441309547      -6.190623660582432E-4    -0.0011257483500352685   -3.148159494442209E-4    -3.093786292101455E-4    -2.1331768485019496E-5   -1.2364700733884289E-6
1.125                     0.48                     0                        NaN                      NaN                      NaN                      NaN                      5.112262798882653E-4     0.008292002910782194     0.032949518481636804     0.018688202729522232     0.025937349514324973     0.13982578868364154      0.19781896464426557      0.0573335287806519       -3.678462086518617E-4    -6.689175446063742E-4    -1.870630431274106E-4    -1.8383219774717008E-4   -1.2675296494924454E-5   -7.347080499794107E-7
1.175                     0.48                     0                        NaN                      NaN                      NaN                      NaN                      2.751831506314392E-5     -5.508223611679548E-4    -0.0015589388581255085   -1.635440996283961E-5    0.009461816732788038     0.09190968328705114      0.13506101204078844      0.03916680370868498      2.2782489098004192E-4    4.142943200952951E-4     1.1585756242914527E-4    1.138565368727074E-4     7.850449481356545E-6     4.550418596831933E-7
1.225                     0.48                     0                        NaN                      NaN                      NaN                      NaN                      4.0466369542995944E-5    -1.1084072443428246E-4   -0.001110784886880583    -7.500413688782833E-4    0.006961494824872513     0.06335004927725311      0.09378906277521429      0.0274072807508622       -6.0602669035584644E-5   -1.1020523554336264E-4   -3.081893509004845E-5    -3.028664875807077E-5    -2.0882756565528747E-6   -1.210446665385027E-7
1.275                     0.48                     0                        NaN                      NaN                      NaN                      NaN                      7.18184683870936E-8      5.202824667681822E-5     -5.6816884615049947E-5   -2.5606486929424457E-4   0.005976192874108953     0.05222191986059054      0.07702215600582173      0.022498882165502204     2.31329433507483E-6      4.2081836211686015E-6    1.1768200245269605E-6    1.156493605871404E-6     7.974058044314232E-8     4.622025738298399E-9
1.325                     0.48                     0                        NaN                      NaN                      NaN                      NaN                      7.29854753424189E-6      5.026350232153187E-5     -1.4494667727433443E-4   -2.982686615812366E-4    0.005683141293639117     0.05047722427501389      0.07440963156146999      0.021718153747085675     4.396319371686397E-5     7.994790457031241E-5     2.2357461425325862E-5    2.1971314972691507E-5    1.5149301106996012E-6    8.781111659670104E-8
1.375                     0.48                     0                        NaN                      NaN                      NaN                      NaN                      7.298547534241888E-6     5.026350232153186E-5     -1.4494667727433437E-4   -2.982686615812365E-4    0.005683141293639116     0.05047722427501388      0.07440963156146997      0.021718153747085668     4.396319371686396E-5     7.99479045703124E-5      2.2357461425325855E-5    2.19713149726915E-5      1.5149301106996008E-6    8.781111659670103E-8
1.425                     0.48                     0                        NaN                      NaN                      NaN                      NaN                      3.9789869609286984E-6    3.033744244187616E-5     -5.985593873674748E-5    -1.328602364211783E-4    0.0043225228965637925    0.03877329084186046      0.05711608054245455      0.016665090003609197     4.932971692500356E-5     8.970572815679583E-5     2.508624074173515E-5     2.4652964666052477E-5    1.6998308876362682E-6    9.85286817864154E-8
1.475                     0.48                     0                        NaN                      NaN                      NaN                      NaN                      1.599056080478552E-7     1.2606367854811283E-5    4.2080309106748475E-5    4.082197478805358E-5     0.002652765132857883     0.024009481812471586     0.03535069246629455      0.010318862088764683     2.371368119490562E-5     4.312233274087103E-5     1.2059177239558453E-5    1.1850897543202263E-5    8.171235130473427E-7     4.73636816559247E-8
1.525                     0.48                     0                        NaN                      NaN                      NaN                      NaN                      1.5990560804785517E-7    1.2606367854811281E-5    4.2080309106748475E-5    4.082197478805358E-5     0.002652765132857883     0.024009481812471586     0.03535069246629454      0.010318862088764683     2.371368119490562E-5     4.312233274087103E-5     1.205917723955845E-5     1.1850897543202258E-5    8.171235130473424E-7     4.73636816559247E-8
1.575                     0.48                     0                        NaN                      NaN                      NaN                      NaN                      3.104286453176388E-8     1.2771755243368448E-5    4.016442212997944E-5     2.9782346727347602E-5    0.0021742957659926484    0.01928342791630809      0.028313872092028514     0.008215839788419312     -1.3208437633308207E-5   -2.4019440652409853E-5   -6.717045374844544E-6    -6.601032059927333E-6    -4.551435042345405E-7    -2.6381595594078553E-8
1.625                     0.48                     0                        NaN                      NaN                      NaN                      NaN                      -1.5841354214956544E-8   6.355604731640115E-6     2.3172670610504635E-5    2.0404459428847965E-5    0.0011012423019225363    0.009501292525910088     0.013288659515320803     0.0034969931542723244    7.897375509399184E-6     1.4361257045616202E-5    4.016133062854421E-6     3.946766535032404E-6     2.7213137449107206E-7    1.5773231895695648E-8
1.675                     0.48                     0                        NaN                      NaN                      NaN                      NaN                      -3.803493089678703E-8    4.68543239839552E-6      1.4685203637883744E-5    1.2065771764556544E-5    2.974866292277228E-4     0.0023652329026441488    0.002752273060821023     5.098936090739847E-4     2.342966383894569E-6     4.260639399159908E-6     1.1914899432195774E-6    1.170911694936962E-6     8.073521200600622E-8     4.679540265740411E-9
1.725                     0.48                     0                        NaN                      NaN                      NaN                      NaN                      -5.055659273085976E-8    2.5909212302425493E-6    1.0904259309663944E-5    8.776927754916179E-6     1.0439039178969133E-4    6.925053011822826E-4     5.922684130675545E-4     5.429296122532242E-5     8.765742132407189E-8     1.5939039099640775E-7    4.457429818550816E-8     4.3804409581162925E-8    3.0197911538530043E-9    1.7521453934642394E-10
0.025                     0.62                     0                        NaN                      NaN                      NaN                      NaN                      0.00225941921416016      0.022266719160068563     0.09644749011818832      0.059520081219132895     0.19262601324515918      0.9199992101563512       1.2911698018530304       0.37208005770937086      -1.4327992124192137E-5   -2.635778170706739E-5    -7.370843774662137E-6    -7.243576204003908E-6    -4.994536862211177E-7    -2.9000276535267738E-8
0.07500000000000001       0.62                     0                        NaN                      NaN                      NaN                      NaN                      0.0027940355416738827    0.02647418441500202      0.1095206171522311       0.06649100710251325      0.19379053643512478      0.9124899564487713       1.2788401219777716       0.3685431032466574       4.553366352366422E-5     8.409758443785272E-5     2.3517412063103845E-5    2.3111382115285553E-5    1.5935639288533653E-6    9.258364221998014E-8
0.125                     0.62                     0                        NaN                      NaN                      NaN                      NaN                      0.003915464524245161     0.034854111960916825     0.13380193025959358      0.07901561090704108      0.19458318571610628      0.8952165295715747       1.2577773304047293       0.363701014715365        8.599356653961935E-6     1.5599101638159868E-5    4.362312779223494E-6     4.286961759145244E-6     2.955862509302072E-7     1.7125362540324897E-8
0.17500000000000002       0.62                     0                        NaN                      NaN                      NaN                      NaN                      0.0056357311538127106    0.04752976924776225      0.17000345405365566      0.09749956753409367      0.19488761685520264      0.867179172802519        1.2276590210321079       0.3576720560120028       -1.6193480108597384E-4   -2.9841280809226955E-4   -8.344970418689298E-5    -8.20088717377683E-5     -5.65462087753526E-6     -3.284168329940378E-7
0.225                     0.62                     0                        NaN                      NaN                      NaN                      NaN                      0.010239719953723074     0.07656378569514263      0.23004069193082372      0.12434738544832141      0.19540318003307344      0.8232280237572926       1.1758819275758676       0.34536506328751565      5.852539182938379E-4     0.0010498200858326996    2.935883204077524E-4     2.8851591893681394E-4    1.9892984733761932E-5    1.1506527548841226E-6
0.275                     0.62                     0                        NaN                      NaN                      NaN                      NaN                      0.016208940292066938     0.11371767821135223      0.3033663451875543       0.15634788743169015      0.19603321566850318      0.7704400796311197       1.112246341628432        0.3297457313859351       0.0023437782634428096    0.004234136674816086     0.0011840890682307302    0.0011636348324728686    8.02324752418885E-5      4.645871001437178E-6
0.32500000000000007       0.62                     0                        NaN                      NaN                      NaN                      NaN                      0.029940605689488507     0.17991574060329982      0.3960784723755235       0.1883515401615019       0.19973724719635902      0.7203914426950893       1.0072055088735608       0.2945859919039233       -0.005290625000383494    -0.009526845512660576    -0.002664223359172242    -0.002618197251341503    -1.8052374232832555E-4   -1.0448052440580934E-5
0.37500000000000006       0.62                     0                        NaN                      NaN                      NaN                      NaN                      0.05347609475432515      0.26931124861155187      0.49633881403596375      0.21103670701123609      0.20342904019097216      0.6445015812147216       0.8690506734666079       0.2490016830234981       -0.0035046547874036677   -0.0062479864495054455   -0.0017473015976981038   -0.0017171083336190323   -1.1839270142764233E-4   -6.84146597401458E-6
0.42500000000000004       0.62                     0                        NaN                      NaN                      NaN                      NaN                      0.09276453175119795      0.4004016363679566       0.6185354430212956       0.22412548547087582      0.20786791798717508      0.5264905757305777       0.673765192586296        0.185352181297917        0.011894924221897559     0.021668444235185137     0.006059573508379786     0.005954920527703476     4.10594701128434E-4      2.380598286255324E-5
0.47500000000000003       0.62                     5702801.402993874        1073.1500000000003       1073.1500000000003       1073.1500000000003       1073.1500000000003       0.13095249563265787      0.5289320065351574       0.7283136107770888       0.2296284034549611       0.21017529375280225      0.40727028575245455      0.48401917803076044      0.12463992334786375      0.027097165031043677     0.04925506015523929      0.013774204251718339     0.013536301660274976     9.333324981409508E-4     5.409604718886331E-5
0.525                     0.62                     4773029.581668805        1073.1499999999999       1073.1499999999999       1073.1499999999999       1073.1499999999999       0.14663958215380368      0.5839575030539903       0.7637092334480013       0.222942692485249        0.20740877136540944      0.3457383660012552       0.394883261650527        0.09774521221943439      0.03206485937844409      0.058304447141586196     0.016304862447400887     0.01602325365044055      0.0011048090604795372    6.403812760353383E-5
0.5750000000000001        0.62                     4030406.147427755        1073.15                  1073.15                  1073.15                  1073.15                  0.15499571177125399      0.6129728033408497       0.7783886772912707       0.2149179266034567       0.2033560079377058       0.29585791202254497      0.32446700693889163      0.07692556158326244      0.035212121667082937     0.06403921760481861      0.01790858856228013      0.017599282499837016     0.0012134770562666774    7.033887800206044E-5
0.6250000000000001        0.62                     4350863.769950862        1073.1500000000005       1073.1500000000005       1073.1500000000005       1073.1500000000005       0.134592115238531        0.5407608884406745       0.7160336401614376       0.2066401195621103       0.19769928309470045      0.31320643427442346      0.3581460290766779       0.08899807227232141      0.02968229017985989      0.053981423550457375     0.015095923440488459     0.01483519588949125      0.001022892241767526     5.929153521320872E-5
0.675                     0.62                     4671321.39247397         1073.15                  1073.15                  1073.15                  1073.15                  0.11418851870580815      0.4685489735404996       0.6536786030316045       0.19836231252076392      0.1920425582516951       0.330554956526302        0.3918250512144643       0.10107058296138038      0.02415245869263686      0.04392362949609617      0.012283258318696798     0.012071109279145491     8.323074272683752E-4     4.8244192424357035E-5
0.7250000000000001        0.62                     4986281.550526217        1073.15                  1073.15                  1073.15                  1073.15                  0.09400459144860156      0.39691420648691944      0.5919725862682997       0.19021202018789546      0.1864626013771582       0.34768363731267954      0.424949350471068        0.11291599808044152      0.018832819469084206     0.034247893954849486     0.009577436071852474     0.009412020194621288     6.489622268960358E-4     3.761645641898703E-5
0.775                     0.62                     0                        NaN                      NaN                      NaN                      NaN                      0.07614656164044023      0.32970151116098323      0.5187998376121059       0.17480492576209128      0.1746830667420668       0.36839037313155276      0.4644303216568898       0.12636353478205745      0.014493326938191916     0.026355699470730232     0.007370381288412089     0.007243084285130319     4.994132897055181E-4     2.8947876304979256E-5
0.8250000000000001        0.62                     0                        NaN                      NaN                      NaN                      NaN                      0.049738040576290825     0.22457456798732567      0.3827320884224423       0.13972597800438602      0.14700009975998285      0.40734053555248195      0.5380879051152553       0.15070729788003956      0.008614941829560048     0.015666023349813228     0.004381009334054247     0.004305343050060205     2.9685496584745566E-4    1.7206832078952273E-5
0.8750000000000001        0.62                     0                        NaN                      NaN                      NaN                      NaN                      0.023329519512141402     0.11944762481366807      0.2466643392327787       0.10464703024668076      0.11931713277789885      0.4462906979734111       0.6117454885736208       0.1750510609780217       0.0027365567209281785    0.004976347228896215     0.001391637379696405     0.0013676018149900901    9.429664198939314E-5     5.4657878529252884E-6
0.925                     0.62                     0                        NaN                      NaN                      NaN                      NaN                      0.002170761469038018     0.035218918896389416     0.1376455654975787       0.0765414439395569       0.09713727655398122      0.47749793825779097      0.6707606444261375       0.19455551531674187      -0.0019732612918106508   -0.0035883228657374194   -0.0010034758388534546   -9.86144380607339E-4     -6.799501204599966E-5    -3.941248358925618E-6
0.9750000000000001        0.62                     0                        NaN                      NaN                      NaN                      NaN                      0.002170761469038018     0.03521891889638941      0.13764556549757867      0.07654144393955689      0.0971372765539812       0.47749793825779085      0.6707606444261374       0.19455551531674184      -0.0019732612918106503   -0.003588322865737419    -0.0010034758388534543   -9.861443806073388E-4    -6.799501204599964E-5    -3.941248358925617E-6