% Model:              eigen_1st.mph
% Version:            COMSOL 5.3.1.180
% Date:               Apr 23 2018, 15:45
% Dimension:          2
% Nodes:              1330
% Expressions:        19
% Description:        , , , , , , , , , , , , , , , , , , 
% Length unit:        m
% cpl1x                   cpl1y                    PdensityN (W/m^3) @ lambda=1 Tp221 (K) @ lambda=1     Tp231 (K) @ lambda=1     Tp241 (K) @ lambda=1     Tp31 (K) @ lambda=1      Flux1 (1/(m^2*s)) @ lambda=1 Flux2 (1/(m^2*s)) @ lambda=1 Flux3 (1/(m^2*s)) @ lambda=1 Flux4 (1/(m^2*s)) @ lambda=1 Flux5 (1/(m^2*s)) @ lambda=1 Flux6 (1/(m^2*s)) @ lambda=1 Flux7 (1/(m^2*s)) @ lambda=1 Flux8 (1/(m^2*s)) @ lambda=1 Conc1 (1/(m^2*s)) @ lambda=1 Conc2 (1/(m^2*s)) @ lambda=1 Conc3 (1/(m^2*s)) @ lambda=1 Conc4 (1/(m^2*s)) @ lambda=1 Conc5 (1/(m^2*s)) @ lambda=1 Conc6 (1/(m^2*s)) @ lambda=1
0.025                     0.48                     0                        NaN                      NaN                      NaN                      NaN                      7.440699183207177E-4     0.0072012882425212255    0.03063228267593235      0.018808215622297626     0.060366426502863405     0.2882680609416594       0.40493092704070777      0.11676632849979905      -1.0383103806787468E-5   -1.911165017018672E-5    -5.3444884051303164E-6   -5.252210075109467E-6    -3.6214683196002454E-7   -2.1029232787616184E-8
0.07500000000000001       0.48                     0                        NaN                      NaN                      NaN                      NaN                      9.847600726441456E-4     0.00907542606626252      0.036385322596941216     0.021871658406683536     0.06093330983581349      0.28508407226314963      0.3993566843008559       0.11510345474366931      6.062740847591705E-6     1.122363019931461E-5     3.138616210926531E-6     3.084428954038125E-6     2.1267599411593853E-7    1.2361027243504176E-8
0.125                     0.48                     0                        NaN                      NaN                      NaN                      NaN                      0.0011379662551100499    0.010159885136517579     0.03936377671762671      0.02337675990967253      0.061050823321309476     0.28303930455804166      0.39666966550096167      0.11443928115896967      1.4499586928229305E-5    2.6688956176127048E-5    7.463451770502001E-6     7.334582926805062E-6     5.057277026469451E-7     2.936711216962131E-8
0.17500000000000002       0.48                     0                        NaN                      NaN                      NaN                      NaN                      0.0019788473384494375    0.0160343923967604       0.05521963272569515      0.03129806678842448      0.061156009900494177     0.27069645966781963      0.3832957923662783       0.1116958729133967       -1.6105210216010515E-5   -2.905703280621276E-5    -8.125902253439778E-6    -7.985530786484492E-6    -5.506006757562497E-7    -3.1875375069632914E-8
0.225                     0.48                     0                        NaN                      NaN                      NaN                      NaN                      0.003097375014306151     0.023720351409102697     0.07216923431687511      0.0390912418342083       0.06105696596219398      0.257500486576054        0.3693895574156535       0.10876236287490651      3.402405058082098E-4     6.130645693748176E-4     1.7144598587900674E-4    1.6848419729243645E-4    1.161693149296454E-5     6.72412986804409E-7
0.275                     0.48                     0                        NaN                      NaN                      NaN                      NaN                      0.005284587910798559     0.03631361675747898      0.09524543875225205      0.04873019685437906      0.061328118344604526     0.24113988771531866      0.3480215335298842       0.10316861360962801      5.491481098300765E-4     9.913741132835804E-4     2.772410262647436E-4     2.7245181842232546E-4    1.878550388504473E-5     1.0876619027411693E-6
0.32500000000000007       0.48                     0                        NaN                      NaN                      NaN                      NaN                      0.010198366897233926     0.059552888578097665     0.1278186418658671       0.05990295112232987      0.06297987735425507      0.22280340407605176      0.3105780342300045       0.09063921628972667      -5.689189155727767E-4    -0.001013577318684475    -2.8345560105284297E-4   -2.785574343962822E-4    -1.920621212406667E-5    -1.1097573123385814E-6
0.37500000000000006       0.48                     0                        NaN                      NaN                      NaN                      NaN                      0.012027115569756051     0.06808276943123541      0.1395297768445371       0.06385105899872691      0.06359431478639296      0.21629914289935726      0.29689601211718986      0.08601299785010312      -0.0011777596700194243   -0.002107696371436221    -5.894315867264725E-4    -5.79247232346815E-4     -3.993861818696437E-5    -2.309300971173485E-6
0.42500000000000004       0.48                     0                        NaN                      NaN                      NaN                      NaN                      0.023607971914059618     0.10692848461050125      0.17640854071678233      0.06818112270436084      0.06476228926442773      0.18102393963057267      0.2380234282943267       0.06681685540021468      0.0026899634503204537    0.004904156952777543     0.0013714443756179036    0.0013477590554821337    9.292872929337587E-5     5.388591639197447E-6
0.47500000000000003       0.48                     2006155.8334950001       1073.15                  1073.15                  1073.15                  1073.15                  0.03643557883666957      0.1499561805021258       0.2172575308674635       0.07297734446157596      0.06605600339526915      0.14195114326783123      0.17281284788940143      0.04555412987657772      0.006974070808030193     0.012670879513519157     0.00354342072357776      0.0034822194496676086    2.401000658211783E-4     1.3915209844497398E-5
0.525                     0.48                     2006155.833494999        1073.15                  1073.15                  1073.15                  1073.15                  0.03643557883666955      0.14995618050212572      0.21725753086746338      0.07297734446157592      0.06605600339526911      0.14195114326783115      0.17281284788940135      0.04555412987657769      0.006974070808030189     0.01267087951351915      0.003543420723577758     0.0034822194496676065    2.4010006582117816E-4    1.391520984449739E-5
0.5750000000000001        0.48                     1277494.169242639        1073.15                  1073.15                  1073.15                  1073.15                  0.0493745654485577       0.1951334648204086       0.24694098225719974      0.06814587004648806      0.06423286066155341      0.09384880077697866      0.10285484837780148      0.02436339279537192      0.011107663214116522     0.02020084783334546      0.005649173962812009     0.005551604886551074     3.8278520952698025E-4    2.2187989624442404E-5
0.6250000000000001        0.48                     1548099.5001669824       1073.1499999999996       1073.1499999999996       1073.1499999999996       1073.1499999999996       0.030531741328967372     0.12821414554725505      0.18889675097056008      0.06009423857351465      0.0587855656583248       0.10819465574253412      0.13161108515642206      0.034814510626274636     0.0061820077757763015    0.011242212508094944     0.0031438888019330244    0.0030895894036379566    2.1302831873598737E-4    1.234799289605507E-5
0.675                     0.48                     1608326.3676703596       1073.15                  1073.15                  1073.15                  1073.15                  0.026670685066908086     0.11450862259853292      0.17709253384349882      0.05853557102158136      0.057718333801791276     0.11147089148801521      0.1379453937402577       0.03707937188865749      0.005166087089706713     0.00939438138804052      0.0026271422950785183    0.0025817677984499303    1.7801382649931347E-4    1.0318352272952682E-5
0.7250000000000001        0.48                     1608326.3676703607       1073.1499999999999       1073.1499999999999       1073.1499999999999       1073.1499999999999       0.026670685066908107     0.114508622598533        0.17709253384349896      0.058535571021581405     0.05771833380179132      0.1114708914880153       0.1379453937402578       0.037079371888657515     0.005166087089706717     0.009394381388040527     0.00262714229507852      0.0025817677984499325    1.780138264993136E-4     1.031835227295269E-5
0.775                     0.48                     0                        NaN                      NaN                      NaN                      NaN                      0.026670685066908097     0.11450862259853298      0.1770925338434989       0.05853557102158139      0.057718333801791304     0.11147089148801527      0.13794539374025777      0.0370793718886575       0.005166087089706717     0.009394381388040525     0.00262714229507852      0.002581767798449932     1.7801382649931357E-4    1.0318352272952689E-5
0.8250000000000001        0.48                     0                        NaN                      NaN                      NaN                      NaN                      0.026670685066908104     0.11450862259853299      0.17709253384349893      0.0585355710215814       0.05771833380179131      0.11147089148801527      0.13794539374025777      0.03707937188865751      0.0051660870897067175    0.009394381388040527     0.00262714229507852      0.0025817677984499325    1.780138264993136E-4     1.0318352272952689E-5
0.8750000000000001        0.48                     0                        NaN                      NaN                      NaN                      NaN                      9.395947585087107E-4     0.0120783932768482       0.044515191327606216     0.024356467599456984     0.030745489631905477     0.1494219052666824       0.20971351461540258      0.06079866935324789      -5.615058235971687E-4    -0.0010210834146541338   -2.855463608341464E-4    -2.806145681611624E-4    -1.9348476041145978E-5   -1.12151096509923E-6
0.925                     0.48                     0                        NaN                      NaN                      NaN                      NaN                      6.810232059727993E-4     0.01104907259494644      0.04318292250904669      0.02401300202026         0.030474439703211238     0.1498032747475496       0.21043471197683783      0.0610370244130985       -6.190623660575255E-4    -0.0011257483500353124   -3.148159494441256E-4    -3.093786292100813E-4    -2.133176848496793E-5    -1.2364700734311452E-6
0.9750000000000001        0.48                     0                        NaN                      NaN                      NaN                      NaN                      6.810232059727991E-4     0.011049072594946438     0.043182922509046685     0.024013002020259997     0.030474439703211235     0.1498032747475496       0.2104347119768378       0.061037024413098495     -6.190623660575254E-4    -0.0011257483500353124   -3.1481594944412556E-4   -3.093786292100813E-4    -2.133176848496793E-5    -1.236470073431145E-6
1.025                     0.48                     0                        NaN                      NaN                      NaN                      NaN                      6.81023205972799E-4      0.011049072594946434     0.04318292250904667      0.02401300202025999      0.030474439703211228     0.14980327474754954      0.21043471197683775      0.061037024413098474     -6.190623660575253E-4    -0.001125748350035312    -3.148159494441255E-4    -3.093786292100812E-4    -2.133176848496792E-5    -1.2364700734311445E-6
1.075                     0.48                     0                        NaN                      NaN                      NaN                      NaN                      6.810232059727989E-4     0.011049072594946432     0.043182922509046665     0.024013002020259987     0.030474439703211224     0.1498032747475495       0.21043471197683772      0.06103702441309847      -6.190623660575252E-4    -0.001125748350035312    -3.1481594944412545E-4   -3.0937862921008114E-4   -2.1331768484967918E-5   -1.2364700734311445E-6
1.125                     0.48                     0                        NaN                      NaN                      NaN                      NaN                      5.112262798883427E-4     0.00829200291078276      0.032949518481638566     0.018688202729528522     0.025937349514326205     0.1398257886836483       0.1978189646442752       0.05733352878065468      -3.678462086511815E-4    -6.689175446064181E-4    -1.8706304312729593E-4   -1.83832197747125E-4     -1.2675296494865445E-5   -7.34708050017166E-7
1.175                     0.48                     0                        NaN                      NaN                      NaN                      NaN                      2.751831506318137E-5     -5.508223611679079E-4    -0.0015589388581256772   -1.6354409959266295E-5   0.009461816732788586     0.0919096832870555       0.13506101204079474      0.03916680370868684      2.2782489098029332E-4    4.142943200954902E-4     1.158575624293763E-4     1.1385653687270226E-4    7.850449481356575E-6     4.550418596433367E-7
1.225                     0.48                     0                        NaN                      NaN                      NaN                      NaN                      4.046636954310653E-5     -1.108407244340033E-4    -0.0011107848868803858   -7.500413688691923E-4    0.006961494824873021     0.06335004927725608      0.09378906277521874      0.027407280750863496     -6.060266903698235E-5    -1.1020523554300206E-4   -3.081893508966678E-5    -3.0286648758069477E-5   -2.0882756566415192E-6   -1.2104466666953461E-7
1.275                     0.48                     0                        NaN                      NaN                      NaN                      NaN                      7.181846871731617E-8     5.20282466773007E-5      -5.681688461461465E-5    -2.560648692742957E-4    0.005976192874109372     0.05222191986059296      0.07702215600582546      0.022498882165503255     2.3132943322475154E-6    4.208183621403819E-6     1.176820025156245E-6     1.1564936058650547E-6    7.974058040417499E-8     4.622025557045379E-9
1.325                     0.48                     0                        NaN                      NaN                      NaN                      NaN                      7.2985475346567524E-6    5.0263502322049824E-5    -1.4494667727387703E-4   -2.982686615581119E-4    0.005683141293639494     0.050477224275016205     0.07440963156147362      0.021718153747086695     4.3963193713786655E-5    7.994790457052829E-5     2.2357461426052423E-5    2.197131497268455E-5     1.514930110683237E-6     8.781111641629495E-8
1.375                     0.48                     0                        NaN                      NaN                      NaN                      NaN                      7.298547534656751E-6     5.026350232204982E-5     -1.4494667727387697E-4   -2.9826866155811186E-4   0.005683141293639493     0.05047722427501619      0.07440963156147361      0.021718153747086688     4.396319371378665E-5     7.994790457052826E-5     2.235746142605242E-5     2.1971314972684548E-5    1.5149301106832365E-6    8.781111641629494E-8
1.425                     0.48                     0                        NaN                      NaN                      NaN                      NaN                      3.978986961271319E-6     3.0337442442338013E-5    -5.985593873649153E-5    -1.3286023641722502E-4   0.004322522896564046     0.038773290841862276     0.05711608054245722      0.01666509000360998      4.932971692393598E-5     8.970572815685973E-5     2.50862407421466E-5      2.4652964665916467E-5    1.699830887645775E-6     9.852868172541802E-8
1.475                     0.48                     0                        NaN                      NaN                      NaN                      NaN                      1.5990560839117317E-7    1.2606367854972971E-5    4.208030910690332E-5     4.082197477059469E-5     0.002652765132857901     0.024009481812472755     0.03535069246629595      0.010318862088765174     2.3713681193843156E-5    4.312233274071209E-5     1.2059177239645255E-5    1.1850897542982507E-5    8.171235129343051E-7     4.736368175567367E-8
1.525                     0.48                     0                        NaN                      NaN                      NaN                      NaN                      1.5990560839117314E-7    1.2606367854972973E-5    4.208030910690332E-5     4.082197477059468E-5     0.002652765132857901     0.024009481812472755     0.03535069246629595      0.010318862088765172     2.371368119384315E-5     4.3122332740712084E-5    1.205917723964525E-5     1.1850897542982504E-5    8.171235129343051E-7     4.736368175567367E-8
1.575                     0.48                     0                        NaN                      NaN                      NaN                      NaN                      3.104286521592737E-8     1.277175524329472E-5     4.016442212983607E-5     2.9782346719183787E-5    0.0021742957659923296    0.019283427916308996     0.0283138720920296       0.00821583978841973      -1.3208437638060329E-5   -2.4019440652611573E-5   -6.717045375133528E-6    -6.601032060018719E-6    -4.551435043329324E-7    -2.6381595479927512E-8
1.625                     0.48                     0                        NaN                      NaN                      NaN                      NaN                      -1.5841354441847E-8      6.355604732826395E-6     2.3172670611637887E-5    2.0404459432527344E-5    0.0011012423019220554    0.009501292525910464     0.013288659515321231     0.0034969931542725733    7.897375506474946E-6     1.4361257045470306E-5    4.016133064052303E-6     3.946766534883414E-6     2.7213137489540504E-7    1.5773231569154206E-8
1.675                     0.48                     0                        NaN                      NaN                      NaN                      NaN                      -3.8034931147304155E-8   4.685432398459827E-6     1.4685203637532852E-5    1.2065771768704222E-5    2.974866292276663E-4     0.0023652329026441197    0.0027522730608210665    5.098936090740306E-4     2.3429663875050315E-6    4.260639397953081E-6     1.1914899432092944E-6    1.17091169543433E-6      8.073521233079821E-8     4.679540171543567E-9
1.725                     0.48                     0                        NaN                      NaN                      NaN                      NaN                      -5.05565923292413E-8     2.590921229629006E-6     1.0904259308834661E-5    8.776927759990232E-6     1.0439039178960978E-4    6.925053011823155E-4     5.922684130676312E-4     5.429296122529105E-5     8.765742544102677E-8     1.5939039088984293E-7    4.4574298586751047E-8    4.380440995905327E-8     3.01979100697933E-9      1.7521462809409768E-10
0.025                     0.62                     0                        NaN                      NaN                      NaN                      NaN                      0.0022594192141609233    0.0222667191600713       0.09644749011819344      0.0595200812191283       0.19262601324516923      0.9199992101563962       1.291169801853094        0.37208005770938907      -1.4327992126086967E-5   -2.6357781705191556E-5   -7.370843773539708E-6    -7.243576204277603E-6    -4.994536862722416E-7    -2.9000276502783865E-8
0.07500000000000001       0.62                     0                        NaN                      NaN                      NaN                      NaN                      0.0027940355416736285    0.026474184415003606     0.109520617152237        0.06649100710251482      0.1937905364351349       0.9124899564488159       1.278840121977834        0.3685431032466754       4.553366351578123E-5     8.409758444095665E-5     2.3517412064922855E-5    2.3111382115065043E-5    1.5935639288371914E-6    9.258364186436038E-8
0.125                     0.62                     0                        NaN                      NaN                      NaN                      NaN                      0.003915464524244825     0.034854111960917304     0.13380193025960102      0.07901561090703492      0.19458318571611632      0.8952165295716188       1.2577773304047906       0.3637010147153827       8.59935664641605E-6      1.5599101640722102E-5    4.362312780401588E-6     4.286961758890233E-6     2.955862507172681E-7     1.712536204169088E-8
0.17500000000000002       0.62                     0                        NaN                      NaN                      NaN                      NaN                      0.005635731153813183     0.04752976924776176      0.17000345405366535      0.09749956753407056      0.19488761685521208      0.8671791728025615       1.227659021032168        0.3576720560120202       -1.619348010923484E-4    -2.9841280809123375E-4   -8.344970418703126E-5    -8.200887173810998E-5    -5.654620877743058E-6    -3.2841683340600965E-7
0.225                     0.62                     0                        NaN                      NaN                      NaN                      NaN                      0.01023971995372334      0.07656378569514538      0.23004069193083587      0.12434738544832         0.19540318003308324      0.8232280237573334       1.1758819275759258       0.34536506328753264      5.852539182887966E-4     0.0010498200858332011    2.93588320407876E-4      2.8851591893696486E-4    1.9892984733667647E-5    1.1506527546913574E-6
0.275                     0.62                     0                        NaN                      NaN                      NaN                      NaN                      0.01620894029206765      0.11371767821135857      0.30336634518757005      0.1563478874317229       0.19603321566851284      0.7704400796311578       1.1122463416284862       0.3297457313859514       0.002343778263444446     0.004234136674816893     0.0011840890682305312    0.0011636348324729766    8.023247524176756E-5     4.645871001272754E-6
0.32500000000000007       0.62                     0                        NaN                      NaN                      NaN                      NaN                      0.02994060568949037      0.1799157406033092       0.39607847237554433      0.18835154016151606      0.19973724719636862      0.7203914426951247       1.00720550887361         0.29458599190393797      -0.005290625000380722    -0.009526845512660366    -0.002664223359172604    -0.002618197251341489    -1.8052374232843375E-4   -1.044805244075735E-5
0.37500000000000006       0.62                     0                        NaN                      NaN                      NaN                      NaN                      0.05347609475432813      0.26931124861156547      0.49633881403599         0.21103670701123972      0.20342904019098204      0.6445015812147534       0.869050673466651        0.24900168302351036      -0.0035046547873993595   -0.006247986449505806    -0.001747301597698479    -0.0017171083336189157   -1.183927014276339E-4    -6.841465974073793E-6
0.42500000000000004       0.62                     0                        NaN                      NaN                      NaN                      NaN                      0.09276453175120283      0.4004016363679767       0.618535443021328        0.2241254854708892       0.2078679179871857       0.5264905757306038       0.6737651925863293       0.18535218129792594      0.011894924221903021     0.021668444235185144     0.006059573508379612     0.005954920527703917     4.1059470112869847E-4    2.380598286261397E-5
0.47500000000000003       0.62                     5702801.402994165        1073.1500000000003       1073.1500000000003       1073.1500000000003       1073.1500000000003       0.13095249563266503      0.5289320065351846       0.7283136107771264       0.22962840345499064      0.2101752937528138       0.4072702857524749       0.4840191780307844       0.12463992334786969      0.027097165031048094     0.04925506015524108      0.013774204251719002     0.013536301660275672     9.333324981412816E-4     5.4096047188858064E-5
0.525                     0.62                     4773029.581669059        1073.1499999999999       1073.1499999999999       1073.1499999999999       1073.1499999999999       0.14663958215381118      0.5839575030540207       0.7637092334480406       0.22294269248528598      0.20740877136542157      0.34573836600127245      0.39488326165054644      0.09774521221943908      0.03206485937844837      0.05830444714158942      0.01630486244740277      0.016023253650441393     0.0011048090604796384    6.40381276034519E-5
0.5750000000000001        0.62                     4030406.147427974        1073.15                  1073.15                  1073.15                  1073.15                  0.15499571177126142      0.6129728033408816       0.7783886772913107       0.21491792660349285      0.20335600793771816      0.29585791202255973      0.3244670069389076       0.0769255615832662       0.03521212166708835      0.06403921760482278      0.017908588562282796     0.017599282499838068     0.0012134770562667063    7.033887800195062E-5
0.6250000000000001        0.62                     4350863.769951088        1073.1500000000005       1073.1500000000005       1073.1500000000005       1073.1500000000005       0.1345921152385374       0.5407608884407022       0.7160336401614744       0.20664011956213746      0.19769928309471194      0.31320643427443906      0.35814602907669546      0.08899807227232583      0.02968229017986817      0.053981423550461184     0.015095923440490617     0.0148351958894922       0.0010228922417675475    5.929153521301624E-5
0.675                     0.62                     4671321.392474202        1073.15                  1073.15                  1073.15                  1073.15                  0.11418851870581345      0.46854897354052333      0.6536786030316384       0.19836231252078212      0.19204255825170574      0.3305549565263185       0.39182505121448336      0.10107058296138544      0.024152458692647996     0.04392362949609962      0.012283258318698444     0.012071109279146338     8.323074272683889E-4     4.824419242408189E-5
0.7250000000000001        0.62                     4986281.550526453        1073.15                  1073.15                  1073.15                  1073.15                  0.09400459144860579      0.3969142064869391       0.5919725862683307       0.19021202018790054      0.18646260137716794      0.3476836373126968       0.42494935047108856      0.1129159980804472       0.01883281946909834      0.0342478939548525       0.009577436071853525     0.009412020194622048     6.48962226896082E-4      3.7616456418662705E-5
0.775                     0.62                     0                        NaN                      NaN                      NaN                      NaN                      0.07614656164044362      0.3297015111609995       0.5187998376121331       0.17480492576209278      0.17468306674207554      0.368390373131571        0.4644303216569122       0.1263635347820638       0.014493326938205979     0.02635569947073274      0.00737038128841282      0.007243084285130986     4.994132897055909E-4     2.894787630465627E-5
0.8250000000000001        0.62                     0                        NaN                      NaN                      NaN                      NaN                      0.0497380405762931       0.22457456798733694      0.3827320884224625       0.1397259780043948       0.14700009975999012      0.407340535552502        0.5380879051152816       0.15070729788004705      0.008614941829569907     0.01566602334981479      0.004381009334054827     0.004305343050060707     2.9685496584756115E-4    1.720683207869598E-5
0.8750000000000001        0.62                     0                        NaN                      NaN                      NaN                      NaN                      0.02332951951214257      0.11944762481367438      0.2466643392327919       0.10464703024669678      0.11931713277790464      0.4462906979734329       0.6117454885736506       0.17505106097803033      0.002736556720933835     0.0049763472288968345    0.0013916373796968315    0.0013676018149904275    9.429664198953134E-5     5.465787852735695E-6
0.925                     0.62                     0                        NaN                      NaN                      NaN                      NaN                      0.002170761469038297     0.03521891889639176      0.13764556549758628      0.07654144393957873      0.0971372765539858       0.4774979382578142       0.6707606444261704       0.19455551531675142      -0.001973261291808362    -0.0035883228657375573   -0.0010034758388531501   -9.86144380607134E-4     -6.799501204583525E-5    -3.941248359061774E-6
0.9750000000000001        0.62                     0                        NaN                      NaN                      NaN                      NaN                      0.0021707614690382967    0.03521891889639176      0.13764556549758625      0.07654144393957872      0.09713727655398578      0.4774979382578141       0.6707606444261703       0.1945555153167514       -0.001973261291808362    -0.003588322865737557    -0.00100347583885315     -9.861443806071337E-4    -6.799501204583524E-5    -3.9412483590617735E-6