% Model:              eigen_1st.mph
% Version:            COMSOL 5.3.1.180
% Date:               Apr 26 2018, 15:46
% Dimension:          2
% Nodes:              1330
% Expressions:        19
% Description:        , , , , , , , , , , , , , , , , , , 
% Length unit:        m
% cpl1x                   cpl1y                    PdensityN (W/m^3) @ lambda=1 Tp221 (K) @ lambda=1     Tp231 (K) @ lambda=1     Tp241 (K) @ lambda=1     Tp31 (K) @ lambda=1      Flux1 (1/(m^2*s)) @ lambda=1 Flux2 (1/(m^2*s)) @ lambda=1 Flux3 (1/(m^2*s)) @ lambda=1 Flux4 (1/(m^2*s)) @ lambda=1 Flux5 (1/(m^2*s)) @ lambda=1 Flux6 (1/(m^2*s)) @ lambda=1 Flux7 (1/(m^2*s)) @ lambda=1 Flux8 (1/(m^2*s)) @ lambda=1 Conc1 (1/(m^2*s)) @ lambda=1 Conc2 (1/(m^2*s)) @ lambda=1 Conc3 (1/(m^2*s)) @ lambda=1 Conc4 (1/(m^2*s)) @ lambda=1 Conc5 (1/(m^2*s)) @ lambda=1 Conc6 (1/(m^2*s)) @ lambda=1
0.025                     0.48                     0                        NaN                      NaN                      NaN                      NaN                      7.440699183205546E-4     0.007201288242519733     0.03063228267593022      0.018808215622297113     0.06036642650286036      0.28826806094164625      0.40493092704068917      0.11676632849979374      -1.0383103804501695E-5   -1.911165017035538E-5    -5.344488405926898E-6    -5.252210075102798E-6    -3.621468316281227E-7    -2.1029232830224198E-8
0.07500000000000001       0.48                     0                        NaN                      NaN                      NaN                      NaN                      9.847600726438147E-4     0.00907542606626097      0.03638532259693875      0.021871658406680497     0.060933309835810565     0.2850840722631366       0.39935668430083804      0.11510345474366405      6.062740847732048E-6     1.1223630199928093E-5    3.138616209843126E-6     3.0844289540553153E-6    2.1267599437418921E-7    1.2361027220339055E-8
0.125                     0.48                     0                        NaN                      NaN                      NaN                      NaN                      0.0011379662551101266    0.010159885136516198     0.03936377671762454      0.02337675990964898      0.06105082332130668      0.2830393045580287       0.39666966550094374      0.11443928115896446      1.4499586928355416E-5    2.6688956176494142E-5    7.463451769798482E-6     7.3345829268239845E-6    5.057277032045655E-7     2.9367112224375716E-8
0.17500000000000002       0.48                     0                        NaN                      NaN                      NaN                      NaN                      0.001978847338449346     0.016034392396759637     0.05521963272569316      0.03129806678843859      0.061156009900491234     0.2706964596678073       0.38329579236626066      0.11169587291339154      -1.6105210216638194E-5   -2.905703280761151E-5    -8.125902253687616E-6    -7.985530786375558E-6    -5.506006759029886E-7    -3.1875375452446086E-8
0.225                     0.48                     0                        NaN                      NaN                      NaN                      NaN                      0.0030973750143062093    0.0237203514091013       0.07216923431687214      0.03909124183420402      0.061056965962190964     0.2575004865760422       0.3693895574156367       0.10876236287490156      3.4024050580931133E-4    6.130645693739545E-4     1.714459858790578E-4     1.684841972923434E-4     1.1616931493271514E-5    6.724129865201466E-7
0.275                     0.48                     0                        NaN                      NaN                      NaN                      NaN                      0.005284587910798625     0.03631361675747652      0.09524543875224782      0.04873019685434901      0.0613281183446015       0.24113988771530753      0.3480215335298688       0.10316861360962332      5.491481098322317E-4     9.913741132834704E-4     2.7724102626505703E-4    2.724518184219979E-4     1.878550388597411E-5     1.0876619027167212E-6
0.32500000000000007       0.48                     0                        NaN                      NaN                      NaN                      NaN                      0.010198366897233085     0.059552888578094695     0.12781864186586123      0.059902951122307466     0.06297987735425213      0.2228034040760415       0.3105780342299904       0.0906392162897225       -5.689189155741224E-4    -0.0010135773186849193   -2.834556010527044E-4    -2.7855743439647454E-4   -1.920621212372525E-5    -1.109757312283389E-6
0.37500000000000006       0.48                     0                        NaN                      NaN                      NaN                      NaN                      0.012027115569754854     0.0680827694312325       0.13952977684453038      0.06385105899871414      0.06359431478638998      0.21629914289934732      0.2968960121171761       0.08601299785009915      -0.0011777596700215426   -0.002107696371436601    -5.894315867264551E-4    -5.792472323468709E-4    -3.993861818706141E-5    -2.3093009711341627E-6
0.42500000000000004       0.48                     0                        NaN                      NaN                      NaN                      NaN                      0.023607971914058123     0.10692848461049637      0.17640854071677373      0.0681811227043482       0.06476228926442452      0.18102393963056435      0.2380234282943157       0.06681685540021164      0.0026899634503185464    0.0049041569527774635    0.0013714443756179203    0.0013477590554819862    9.292872929323557E-5     5.388591639221408E-6
0.47500000000000003       0.48                     2006155.8334949021       1073.15                  1073.15                  1073.15                  1073.15                  0.03643557883666774      0.14995618050211876      0.21725753086745286      0.07297734446156345      0.0660560033952657       0.14195114326782465      0.17281284788939347      0.04555412987657572      0.00697407080802852      0.012670879513519409     0.0035434207235777756    0.0034822194496673597    2.4010006582099008E-4    1.3915209844504345E-5
0.525                     0.48                     2006155.8334949017       1073.15                  1073.15                  1073.15                  1073.15                  0.03643557883666772      0.14995618050211867      0.21725753086745273      0.07297734446156341      0.06605600339526566      0.14195114326782457      0.17281284788939338      0.04555412987657569      0.006974070808028515     0.012670879513519402     0.0035434207235777735    0.0034822194496673575    2.4010006582098994E-4    1.3915209844504339E-5
0.5750000000000001        0.48                     1277494.1692425706       1073.15                  1073.15                  1073.15                  1073.15                  0.04937456544855555      0.19513346482039942      0.24694098225718786      0.068145870046473        0.06423286066155001      0.09384880077697427      0.10285484837779679      0.024363392795370795     0.011107663214116199     0.020200847833344467     0.005649173962811213     0.005551604886550749     3.827852095269052E-4     2.2187989624494266E-5
0.6250000000000001        0.48                     1548099.500166895        1073.1499999999996       1073.1499999999996       1073.1499999999996       1073.1499999999996       0.030531741328966036     0.12821414554724886      0.18889675097055098      0.0600942385734944       0.0587855656583219       0.10819465574252901      0.13161108515641587      0.03481451062627294      0.006182007775774056     0.01124221250809376      0.003143888801933382     0.0030895894036377138    2.1302831873595948E-4    1.2347992896154384E-5
0.675                     0.48                     1608326.3676702685       1073.15                  1073.15                  1073.15                  1073.15                  0.026670685066906917     0.11450862259852733      0.17709253384349025      0.05853557102156011      0.05771833380178848      0.11147089148800994      0.1379453937402512       0.037079371888655684     0.005166087089704074     0.009394381388039311     0.002627142295079113     0.0025817677984497044    1.7801382649929398E-4    1.031835227306104E-5
0.7250000000000001        0.48                     1608326.3676702695       1073.1499999999999       1073.1499999999999       1073.1499999999999       1073.1499999999999       0.026670685066906934     0.11450862259852741      0.17709253384349036      0.05853557102156015      0.05771833380178853      0.11147089148801002      0.1379453937402513       0.037079371888655704     0.005166087089704078     0.009394381388039318     0.002627142295079115     0.002581767798449706     1.780138264992941E-4     1.0318352273061047E-5
0.775                     0.48                     0                        NaN                      NaN                      NaN                      NaN                      0.026670685066906927     0.1145086225985274       0.17709253384349033      0.05853557102156014      0.057718333801788514     0.11147089148801         0.13794539374025125      0.03707937188865569      0.005166087089704077     0.009394381388039316     0.0026271422950791146    0.0025817677984497057    1.7801382649929406E-4    1.0318352273061047E-5
0.8250000000000001        0.48                     0                        NaN                      NaN                      NaN                      NaN                      0.02667068506690693      0.1145086225985274       0.17709253384349036      0.058535571021560144     0.057718333801788514     0.11147089148801001      0.13794539374025125      0.0370793718886557       0.005166087089704078     0.009394381388039318     0.0026271422950791146    0.002581767798449706     1.780138264992941E-4     1.0318352273061047E-5
0.8750000000000001        0.48                     0                        NaN                      NaN                      NaN                      NaN                      9.395947585086747E-4     0.012078393276847418     0.04451519132760379      0.024356467599457296     0.03074548963190421      0.14942190526667531      0.2097135146153926       0.06079866935324499      -5.615058235979059E-4    -0.0010210834146541033   -2.8554636083423507E-4   -2.806145681611719E-4    -1.9348476041197223E-5   -1.1215109650042782E-6
0.925                     0.48                     0                        NaN                      NaN                      NaN                      NaN                      6.810232059727745E-4     0.011049072594945704     0.04318292250904432      0.02401300202026053      0.030474439703209986     0.14980327474754246      0.2104347119768278       0.06103702441309559      -6.190623660582437E-4    -0.0011257483500352694   -3.148159494442212E-4    -3.093786292100886E-4    -2.1331768485019496E-5   -1.2364700733363283E-6
0.9750000000000001        0.48                     0                        NaN                      NaN                      NaN                      NaN                      6.810232059727744E-4     0.011049072594945702     0.04318292250904432      0.024013002020260528     0.030474439703209982     0.14980327474754246      0.21043471197682778      0.061037024413095574     -6.190623660582436E-4    -0.0011257483500352692   -3.1481594944422113E-4   -3.093786292100886E-4    -2.1331768485019492E-5   -1.236470073336328E-6
1.025                     0.48                     0                        NaN                      NaN                      NaN                      NaN                      6.810232059727743E-4     0.0110490725949457       0.043182922509044305     0.02401300202026052      0.030474439703209975     0.1498032747475424       0.21043471197682773      0.06103702441309556      -6.190623660582435E-4    -0.001125748350035269    -3.148159494442211E-4    -3.093786292100885E-4    -2.133176848501949E-5    -1.2364700733363277E-6
1.075                     0.48                     0                        NaN                      NaN                      NaN                      NaN                      6.810232059727742E-4     0.011049072594945699     0.0431829225090443       0.024013002020260518     0.030474439703209972     0.14980327474754238      0.2104347119768277       0.06103702441309555      -6.190623660582434E-4    -0.0011257483500352688   -3.14815949444221E-4     -3.0937862921008846E-4   -2.1331768485019486E-5   -1.2364700733363275E-6
1.125                     0.48                     0                        NaN                      NaN                      NaN                      NaN                      5.112262798883171E-4     0.008292002910782189     0.032949518481636776     0.0186882027295278       0.02593734951432512      0.1398257886836417       0.1978189646442659       0.05733352878065198      -3.6784620865165977E-4   -6.689175446064062E-4    -1.8706304312739066E-4   -1.838321977471321E-4    -1.2675296494945315E-5   -7.347080499510066E-7
1.175                     0.48                     0                        NaN                      NaN                      NaN                      NaN                      2.7518315063120873E-5    -5.508223611680374E-4    -0.0015589388581255656   -1.635440996215526E-5    0.009461816732788075     0.0919096832870514       0.1350610120407887       0.039166803708685076     2.2782489098060202E-4    4.142943200953309E-4     1.1585756242933187E-4    1.1385653687266635E-4    7.850449481309406E-6     4.5504185965756353E-7
1.225                     0.48                     0                        NaN                      NaN                      NaN                      NaN                      4.046636954305107E-5     -1.1084072443437917E-4   -0.0011107848868805875   -7.50041368878418E-4     0.006961494824872452     0.06335004927725327      0.09378906277521443      0.027407280750862267     -6.0602669036203445E-5   -1.102052355436776E-4    -3.081893508991778E-5    -3.028664875809675E-5    -2.0882756565206353E-6   -1.2104466651099525E-7
1.275                     0.48                     0                        NaN                      NaN                      NaN                      NaN                      7.181846863458561E-8     5.202824667679741E-5     -5.6816884615179305E-5   -2.5606486929481486E-4   0.005976192874108762     0.052221919860590646     0.07702215600582163      0.022498882165502262     2.313294333463333E-6     4.208183620215886E-6     1.1768200245269605E-6    1.156493605871404E-6     7.974058046204005E-8     4.622025754423352E-9
1.325                     0.48                     0                        NaN                      NaN                      NaN                      NaN                      7.298547534542439E-6     5.026350232153188E-5     -1.449466772745049E-4    -2.9826866158123665E-4   0.005683141293638902     0.05047722427501398      0.07440963156146983      0.02171815374708573      4.3963193715049283E-5    7.99479045692396E-5      2.2357461425325865E-5    2.197131497269151E-5     1.5149301106996001E-6    8.781111659670106E-8
1.375                     0.48                     0                        NaN                      NaN                      NaN                      NaN                      7.298547534542438E-6     5.0263502321531867E-5    -1.4494667727450486E-4   -2.9826866158123654E-4   0.005683141293638901     0.050477224275013964     0.07440963156146982      0.021718153747085727     4.396319371504927E-5     7.994790456923957E-5     2.235746142532586E-5     2.1971314972691504E-5    1.5149301106995997E-6    8.781111659670104E-8
1.425                     0.48                     0                        NaN                      NaN                      NaN                      NaN                      3.978986961124336E-6     3.033744244189653E-5     -5.985593873684412E-5    -1.3286023642173608E-4   0.00432252289656368      0.038773290841860535     0.05711608054245452      0.01666509000360925      4.9329716923822325E-5    8.970572815623296E-5     2.5086240741735158E-5    2.465296466595552E-5     1.6998308876362674E-6    9.852868177316415E-8
1.475                     0.48                     0                        NaN                      NaN                      NaN                      NaN                      1.599056083382461E-7     1.2606367854967091E-5    4.208030910674036E-5     4.082197478378587E-5     0.002652765132857884     0.024009481812471638     0.03535069246629453      0.010318862088764712     2.371368119315225E-5     4.312233274087104E-5     1.205917723955846E-5     1.185089754306478E-5     8.171235130473422E-7     4.736368169244027E-8
1.525                     0.48                     0                        NaN                      NaN                      NaN                      NaN                      1.5990560833824605E-7    1.2606367854967091E-5    4.208030910674036E-5     4.082197478378587E-5     0.002652765132857884     0.024009481812471638     0.03535069246629453      0.010318862088764712     2.371368119315224E-5     4.312233274087103E-5     1.2059177239558456E-5    1.185089754306478E-5     8.17123513047342E-7      4.7363681692440257E-8
1.575                     0.48                     0                        NaN                      NaN                      NaN                      NaN                      3.1042864905197606E-8    1.2771755243517966E-5    4.016442212997944E-5     2.978234672464498E-5     0.0021742957659926323    0.01928342791630814      0.028313872092028455     0.00821583978841935      -1.3208437637235212E-5   -2.4019440651895308E-5   -6.717045374844546E-6    -6.601032059977599E-6    -4.5514350436389906E-7   -2.638159551176743E-8
1.625                     0.48                     0                        NaN                      NaN                      NaN                      NaN                      -1.5841353723972023E-8   6.355604731668405E-6     2.3172670610504635E-5    2.0404459434513965E-5    0.0011012423019222293    0.009501292525910154     0.013288659515321035     0.003496993154272332     7.897375507387201E-6     1.4361257045713563E-5    4.016133062854422E-6     3.9467665348314865E-6    2.721313746713151E-7     1.577323208594865E-8
1.675                     0.48                     0                        NaN                      NaN                      NaN                      NaN                      -3.803493079535117E-8    4.68543239839552E-6      1.46852036384273E-5      1.2065771766047295E-5    2.9748662922730304E-4    0.002365232902644162     0.002752273060821082     5.098936090739848E-4     2.342966377800858E-6     4.2606393991599094E-6    1.1914899429450843E-6    1.1709116948907705E-6    8.073521217211883E-8     4.679540307894892E-9
1.725                     0.48                     0                        NaN                      NaN                      NaN                      NaN                      -5.0556592730859774E-8   2.5909212302425498E-6    1.0904259309663946E-5    8.77692775491618E-6      1.0439039178969134E-4    6.925053011822777E-4     5.922684130675546E-4     5.4292961225293976E-5    8.765742508601425E-8     1.5939039085740623E-7    4.4574298185508165E-8    4.3804409297442675E-8    3.0197911538530027E-9    1.7521460407722083E-10
0.025                     0.62                     0                        NaN                      NaN                      NaN                      NaN                      0.002259419214161164     0.022266719160068726     0.09644749011818826      0.05952008121913645      0.19262601324516007      0.9199992101563541       1.291169801853035        0.37208005770937225      -1.4327992120658373E-5   -2.6357781707164133E-5   -7.370843774214668E-6    -7.243576204016575E-6    -4.994536858873591E-7    -2.900027661690509E-8
0.07500000000000001       0.62                     0                        NaN                      NaN                      NaN                      NaN                      0.002794035541674457     0.0264741844150022       0.1095206171522322       0.06649100710251803      0.19379053643512578      0.9124899564487743       1.2788401219777759       0.3685431032466587       4.5533663520860976E-5    8.409758443624306E-5     2.351741206411679E-5     2.3111382115362948E-5    1.5935639289150792E-6    9.258364215068902E-8
0.125                     0.62                     0                        NaN                      NaN                      NaN                      NaN                      0.003915464524245287     0.034854111960916666     0.13380193025959458      0.07901561090704252      0.19458318571610722      0.8952165295715777       1.2577773304047337       0.3637010147153663       8.599356652592029E-6     1.5599101636631238E-5    4.36231278019506E-6      4.2869617593073015E-6    2.955862508757068E-7     1.7125362360455015E-8
0.17500000000000002       0.62                     0                        NaN                      NaN                      NaN                      NaN                      0.0056357311538125935    0.04752976924776155      0.17000345405365505      0.09749956753409508      0.19488761685520326      0.8671791728025218       1.2276590210321126       0.35767205601200414      -1.6193480108131367E-4   -2.9841280809280455E-4   -8.344970418700895E-5    -8.200887173774013E-5    -5.654620877126741E-6    -3.2841683324459736E-7
0.225                     0.62                     0                        NaN                      NaN                      NaN                      NaN                      0.010239719953722876     0.07656378569514227      0.230040691930824        0.1243473854483286       0.19540318003307355      0.8232280237572954       1.1758819275758718       0.345365063287517        5.852539182941143E-4     0.001049820085832254     2.9358832040772955E-4    2.885159189369807E-4     1.98929847338223E-5      1.150652754803889E-6
0.275                     0.62                     0                        NaN                      NaN                      NaN                      NaN                      0.016208940292067264     0.11371767821135248      0.3033663451875554       0.15634788743168         0.19603321566850343      0.7704400796311224       1.112246341628436        0.3297457313859363       0.002343778263443146     0.004234136674814532     0.0011840890682307467    0.001163634832472909     8.023247524175379E-5     4.645871001553538E-6
0.32500000000000007       0.62                     0                        NaN                      NaN                      NaN                      NaN                      0.029940605689488815     0.17991574060330054      0.39607847237552474      0.18835154016150393      0.19973724719635966      0.7203914426950917       1.007205508873564        0.29458599190392437      -0.005290625000383176    -0.009526845512660986    -0.0026642233591722695   -0.0026181972513414906   -1.8052374232837263E-4   -1.044805244069809E-5
0.37500000000000006       0.62                     0                        NaN                      NaN                      NaN                      NaN                      0.05347609475432537      0.26931124861155287      0.4963388140359653       0.2110367070112411       0.20342904019097288      0.6445015812147239       0.869050673466611        0.24900168302349895      -0.0035046547874022444   -0.00624798644950513     -0.0017473015976981286   -0.0017171083336190314   -1.1839270142764222E-4   -6.8414659741552705E-6
0.42500000000000004       0.62                     0                        NaN                      NaN                      NaN                      NaN                      0.09276453175119835      0.40040163636795756      0.6185354430212975       0.22412548547087346      0.2078679179871757       0.5264905757305796       0.6737651925862983       0.1853521812979176       0.011894924221899155     0.02166844423518575      0.006059573508379787     0.005954920527703516     4.10594701128394E-4      2.3805982862553243E-5
0.47500000000000003       0.62                     5702801.402993889        1073.1500000000003       1073.1500000000003       1073.1500000000003       1073.1500000000003       0.13095249563265873      0.5289320065351589       0.7283136107770909       0.22962840345495483      0.21017529375280317      0.40727028575245605      0.48401917803076216      0.12463992334786414      0.027097165031043768     0.049255060155240185     0.01377420425171841      0.013536301660275073     9.33332498140786E-4      5.4096047188863316E-5
0.525                     0.62                     4773029.5816688165       1073.1499999999999       1073.1499999999999       1073.1499999999999       1073.1499999999999       0.14663958215380452      0.5839575030539929       0.7637092334480036       0.22294269248524473      0.20740877136541092      0.3457383660012564       0.39488326165052834      0.09774521221943465      0.03206485937844586      0.058304447141587105     0.0163048624474011       0.01602325365044061      0.0011048090604792882    6.403812760353384E-5
0.5750000000000001        0.62                     4030406.1474277633       1073.15                  1073.15                  1073.15                  1073.15                  0.15499571177125473      0.6129728033408529       0.7783886772912733       0.21491792660345138      0.20335600793770764      0.2958579120225459       0.32446700693889274      0.07692556158326265      0.03521212166708615      0.06403921760481947      0.01790858856228051      0.017599282499837006     0.0012134770562664625    7.033887800203179E-5
0.6250000000000001        0.62                     4350863.769950854        1073.1500000000005       1073.1500000000005       1073.1500000000005       1073.1500000000005       0.13459211523853157      0.5407608884406767       0.71603364016144         0.2066401195620868       0.19769928309470186      0.3132064342744244       0.35814602907667886      0.08899807227232162      0.029682290179864335     0.05398142355045771      0.015095923440489531     0.014835195889491243     0.0010228922417673625    5.929153521319402E-5
0.675                     0.62                     4671321.392473942        1073.15                  1073.15                  1073.15                  1073.15                  0.11418851870580846      0.46854897354050085      0.6536786030316069       0.19836231252072223      0.19204255825169608      0.33055495652630296      0.39182505121446504      0.1010705829613806       0.024152458692642535     0.04392362949609596      0.012283258318698555     0.012071109279145486     8.323074272682627E-4     4.824419242435628E-5
0.7250000000000001        0.62                     4986281.550526172        1073.15                  1073.15                  1073.15                  1073.15                  0.09400459144860168      0.3969142064869199       0.5919725862683021       0.19021202018783512      0.18646260137715878      0.34768363731268037      0.4249493504710686       0.11291599808044173      0.018832819469090847     0.0342478939548487       0.00957743607185487      0.009412020194621288     6.489622268960005E-4     3.761645641898704E-5
0.775                     0.62                     0                        NaN                      NaN                      NaN                      NaN                      0.07614656164044029      0.3297015111609833       0.5187998376121078       0.17480492576203246      0.17468306674206718      0.3683903731315536       0.4644303216568903       0.12636353478205767      0.014493326938198223     0.026355699470729313     0.007370381288414481     0.00724308428513034      4.994132897055178E-4     2.8947876304997037E-5
0.8250000000000001        0.62                     0                        NaN                      NaN                      NaN                      NaN                      0.04973804057629092      0.22457456798732572      0.3827320884224435       0.1397259780043566       0.1470000997599833       0.4073405355524827       0.5380879051152561       0.1507072978800398       0.008614941829564102     0.015666023349812635     0.004381009334055786     0.004305343050060284     2.968549658474555E-4     1.7206832079022994E-5
0.8750000000000001        0.62                     0                        NaN                      NaN                      NaN                      NaN                      0.02332951951214156      0.11944762481366808      0.24666433923277928      0.10464703024668073      0.11931713277789939      0.4462906979734117       0.6117454885736217       0.17505106097802192      0.0027365567209299817    0.0049763472288959516    0.0013916373796970891    0.0013676018149902259    9.429664198939306E-5     5.465787853048947E-6
0.925                     0.62                     0                        NaN                      NaN                      NaN                      NaN                      0.002170761469038218     0.03521891889638942      0.13764556549757873      0.07654144393958041      0.09713727655398181      0.47749793825779147      0.6707606444261385       0.19455551531674212      -0.001973261291810651    -0.0035883228657374202   -0.0010034758388534548   -9.861443806071573E-4    -6.799501204599963E-5    -3.941248358759545E-6
0.9750000000000001        0.62                     0                        NaN                      NaN                      NaN                      NaN                      0.0021707614690382178    0.035218918896389416     0.13764556549757873      0.0765414439395804       0.09713727655398179      0.4774979382577914       0.6707606444261384       0.1945555153167421       -0.0019732612918106508   -0.0035883228657374194   -0.0010034758388534546   -9.861443806071571E-4    -6.799501204599962E-5    -3.9412483587595445E-6