% Model:              eigen_1st.mph
% Version:            COMSOL 5.3.1.180
% Date:               Mar 9 2018, 12:31
% Dimension:          2
% Nodes:              1330
% Expressions:        19
% Description:        , , , , , , , , , , , , , , , , , , 
% Length unit:        m
% cpl1x                   cpl1y                    PdensityN (W/m^3) @ lambda=1 Tp22 (K) @ lambda=1      Tp23 (K) @ lambda=1      Tp24 (K) @ lambda=1      Tp3 (K) @ lambda=1       Flux1 (1/(m^2*s)) @ lambda=1 Flux2 (1/(m^2*s)) @ lambda=1 Flux3 (1/(m^2*s)) @ lambda=1 Flux4 (1/(m^2*s)) @ lambda=1 Flux5 (1/(m^2*s)) @ lambda=1 Flux6 (1/(m^2*s)) @ lambda=1 Flux7 (1/(m^2*s)) @ lambda=1 Flux8 (1/(m^2*s)) @ lambda=1 Conc1 (1/(m^2*s)) @ lambda=1 Conc2 (1/(m^2*s)) @ lambda=1 Conc3 (1/(m^2*s)) @ lambda=1 Conc4 (1/(m^2*s)) @ lambda=1 Conc5 (1/(m^2*s)) @ lambda=1 Conc6 (1/(m^2*s)) @ lambda=1
0.025                     0.48                     0                        NaN                      NaN                      NaN                      NaN                      7.34622942237009E-4      0.007013970097275392     0.029927121553505014     0.018465920208231665     0.0595386962248224       0.2864928224189331       0.4029668457915111       0.11619286381877147      -1.013991293638689E-5    -1.871327593190467E-5    -5.303230051571926E-6    -5.216299356800019E-6    -3.569171959682941E-7    -2.0913937310977682E-8
0.07500000000000001       0.48                     0                        NaN                      NaN                      NaN                      NaN                      9.717938022005169E-4     0.008850141458765219     0.03558135473806144      0.021485422699163596     0.060103479122531944     0.28335737577013415      0.3974557286063104       0.11454545250965922      5.9541380116267445E-6    1.0995333665929593E-5    3.1160093318070813E-6    3.064938379080495E-6     2.0971247833113634E-7    1.2291894169818636E-8
0.125                     0.48                     0                        NaN                      NaN                      NaN                      NaN                      0.0011226746021958437    0.009913614449309957     0.03851028142000194      0.022968276227385138     0.0602305936019876       0.2813416249542475       0.39479490355912095      0.11388871015195305      1.4163252256418118E-5    2.6138394823432784E-5    7.407460983604974E-6     7.2860417348887885E-6    4.985373723952323E-7     2.9212083004551347E-8
0.17500000000000002       0.48                     0                        NaN                      NaN                      NaN                      NaN                      0.0019507846624622208    0.01567856281514341      0.054108630190923386     0.030769784105037373     0.060426022518264955     0.26917206788912         0.3815406918826323       0.11118513711129836      -1.542165566823746E-5    -2.8397054646817957E-5   -8.047550386723062E-6    -7.91559964662542E-6     -5.416296412634084E-7    -3.1699194099090646E-8
0.225                     0.48                     0                        NaN                      NaN                      NaN                      NaN                      0.003051727943034506     0.023224769937647737     0.07078825644246806      0.03844435678316327      0.06042643966027293      0.2561607266483388       0.36777539876117554      0.10830682763606514      3.260566479602045E-4     6.003166687009301E-4     1.7012602129337068E-4    1.673365738412326E-4     1.1450127725310055E-5    6.700798332919589E-7
0.275                     0.48                     0                        NaN                      NaN                      NaN                      NaN                      0.005204558821607625     0.03557207461118803      0.09350324989394139      0.04795708873655579      0.0607848766456828       0.2400448168400911       0.3466881187054169       0.1028027190521087       5.270826124315938E-4     9.706412412463277E-4     2.7507372112308846E-4    2.705636266162435E-4     1.8513460158941222E-5    1.0835610745323358E-6
0.32500000000000007       0.48                     0                        NaN                      NaN                      NaN                      NaN                      0.010040196185881428     0.05830916149624866      0.12558670958679063      0.059053030871416924     0.06241492357327863      0.22202938850823226      0.3099089156394009       0.09043901443343076      -5.405472069524124E-4    -9.939558057352948E-4    -2.816808404754104E-4    -2.770615951270516E-4    -1.8958475363537166E-5   -1.108723447920171E-6
0.37500000000000006       0.48                     0                        NaN                      NaN                      NaN                      NaN                      0.011839878772491211     0.06665373552374806      0.13712354290225953      0.06297691109375518      0.06301882228531265      0.21564067443539459      0.29647382070749456      0.08587293838304294      -0.001122958832712673    -0.0020659364970106193   -5.854735034344864E-4    -5.75872984019069E-4     -3.9404948208999895E-5   -2.3050916366116386E-6
0.42500000000000004       0.48                     0                        NaN                      NaN                      NaN                      NaN                      0.02322575201550586      0.1048337462384188       0.17357583005180346      0.06732655885737629      0.06481912047773544      0.18185515400496588      0.2373010278477991       0.06635814979848097      0.0026078681714860304    0.004807779368144671     0.0013624952265470331    0.0013401587558795123    9.16996944844779E-5      5.370182961653679E-6
0.47500000000000003       0.48                     2021929.1905047856       1073.15                  1073.15                  1073.15                  1073.15                  0.03583738470395514      0.1471240704759469       0.21395243063147112      0.07214447301715135      0.06681323186892316      0.1444324140216204       0.17175791905251914      0.044742473919405785     0.006740341702224527     0.012421493120780152     0.0035201747990105804    0.0034624631243948007    2.3691856018851469E-4    1.387174818641093E-5
0.525                     0.48                     2021929.1905047842       1073.15                  1073.15                  1073.15                  1073.15                  0.035837384703955116     0.1471240704759468       0.213952430631471        0.07214447301715131      0.06681323186892311      0.14443241402162033      0.17175791905251903      0.04474247391940576      0.006740341702224523     0.012421493120780145     0.0035201747990105782    0.0034624631243947985    2.3691856018851455E-4    1.3871748186410923E-5
0.5750000000000001        0.48                     1261131.582890906        1073.15                  1073.15                  1073.15                  1073.15                  0.04896782410029993      0.1939485972108289       0.24497046680731166      0.06734979317595334      0.06554055617408615      0.09603337355120034      0.0986978060586334       0.022635392884247717     0.01054124327643437      0.01942815588394116      0.005505820080061896     0.005415555835366672     3.7055809949581675E-4    2.169771339592444E-5
0.6250000000000001        0.48                     1537660.723724122        1073.1499999999996       1073.1499999999996       1073.1499999999996       1073.1499999999996       0.029923719760341493     0.12535040965566072      0.18499056146824008      0.05894260843065319      0.058941873158433904     0.10889062070761502      0.12867098504671684      0.033556367619757145     0.005884135461848588     0.010844751256072597     0.003073335909557834     0.0030229505804770514    2.0684468115788563E-4    1.2111571801319956E-5
0.675                     0.48                     1599348.4565876564       1073.15                  1073.15                  1073.15                  1073.15                  0.02602095091381707      0.11129652104357392      0.1727896606327065       0.0573129098939772       0.057640825722251814     0.11187343543828349      0.13527460249912657      0.03592273172312713      0.0049245475283429705    0.009076146020585964     0.0025721240441851567    0.0025299557347076853    1.731116347049176E-4     1.0136346500603342E-5
0.7250000000000001        0.48                     1599348.4565876578       1073.1499999999999       1073.1499999999999       1073.1499999999999       1073.1499999999999       0.02602095091381709      0.111296521043574        0.17278966063270662      0.05731290989397724      0.057640825722251855     0.11187343543828357      0.13527460249912665      0.035922731723127155     0.004924547528342974     0.00907614602058597      0.0025721240441851584    0.002529955734707687     1.7311163470491774E-4    1.013634650060335E-5
0.775                     0.48                     0                        NaN                      NaN                      NaN                      NaN                      0.026020950913817082     0.11129652104357397      0.1727896606327066       0.057312909893977235     0.05764082572225185      0.11187343543828353      0.13527460249912662      0.03592273172312714      0.004924547528342973     0.009076146020585969     0.0025721240441851584    0.0025299557347076866    1.7311163470491768E-4    1.0136346500603349E-5
0.8250000000000001        0.48                     0                        NaN                      NaN                      NaN                      NaN                      0.026020950913817086     0.11129652104357399      0.17278966063270662      0.05731290989397724      0.05764082572225185      0.11187343543828354      0.13527460249912662      0.03592273172312715      0.004924547528342974     0.00907614602058597      0.002572124044185159     0.002529955734707687     1.731116347049177E-4     1.0136346500603349E-5
0.8750000000000001        0.48                     0                        NaN                      NaN                      NaN                      NaN                      9.232482966905039E-4     0.011646965710847968     0.04322503587375316      0.02378330853685059      0.02998771606049918      0.14681921457237535      0.2064875774902815       0.059890662698448206     -5.353393412191546E-4    -9.86652790739988E-4     -2.796113424629096E-4    -2.7502729472613603E-4   -1.8818679153340593E-5   -1.101905517771454E-6
0.925                     0.48                     0                        NaN                      NaN                      NaN                      NaN                      6.710416527817283E-4     0.010645588003060544     0.041923041835563515     0.023446369799513353     0.029709830148476585     0.1471703844706182       0.207203196194482        0.06013151627476708      -5.902057074559662E-4    -0.00108777378795835     -3.082684120821665E-4    -3.0321455022384923E-4   -2.0747385579621898E-5   -1.2148386363199688E-6
0.9750000000000001        0.48                     0                        NaN                      NaN                      NaN                      NaN                      6.710416527817282E-4     0.010645588003060542     0.04192304183556351      0.023446369799513353     0.02970983014847658      0.14717038447061817      0.20720319619448196      0.06013151627476707      -5.902057074559661E-4    -0.0010877737879583498   -3.0826841208216646E-4   -3.0321455022384923E-4   -2.0747385579621894E-5   -1.2148386363199686E-6
1.025                     0.48                     0                        NaN                      NaN                      NaN                      NaN                      6.710416527817281E-4     0.01064558800306054      0.041923041835563495     0.023446369799513346     0.029709830148476574     0.14717038447061814      0.2072031961944819       0.06013151627476705      -5.90205707455966E-4     -0.0010877737879583494   -3.082684120821664E-4    -3.032145502238491E-4    -2.0747385579621887E-5   -1.2148386363199681E-6
1.075                     0.48                     0                        NaN                      NaN                      NaN                      NaN                      6.71041652781728E-4      0.010645588003060539     0.04192304183556349      0.023446369799513343     0.02970983014847657      0.14717038447061812      0.20720319619448188      0.060131516274767045     -5.902057074559659E-4    -0.0010877737879583494   -3.0826841208216635E-4   -3.0321455022384907E-4   -2.0747385579621884E-5   -1.214838636319968E-6
1.125                     0.48                     0                        NaN                      NaN                      NaN                      NaN                      5.04048876784124E-4      0.007987910795319603     0.031978401027309436     0.018239681980753045     0.025291854263906326     0.13734885647401654      0.19462200995913262      0.05643627837449453      -3.503063891894619E-4    -6.456292090806264E-4    -1.8296735350288655E-4   -1.7996772154959964E-4   -1.231424983735176E-5    -7.210462834050322E-7
1.175                     0.48                     0                        NaN                      NaN                      NaN                      NaN                      2.7234762935965838E-5    -5.307547979489963E-4    -0.0015376338641231745   -3.602477491047244E-5    0.009238628358597675     0.09017813875904171      0.13239362632321594      0.038410316098767466     2.1808295232068008E-4    4.0193610012390915E-4    1.1390622259492995E-4    1.1203880377631073E-4    7.666229147307883E-6     4.488870516645867E-7
1.225                     0.48                     0                        NaN                      NaN                      NaN                      NaN                      3.936550493160995E-5     -1.042106594841385E-4    -0.0010774045739865795   -7.326582135240311E-4    0.006787284286806691     0.06209120542060774      0.09195055823561456      0.026883256836256107     -5.8008302123140895E-5   -1.0691183064204125E-4   -3.0298156242798037E-5   -2.9801437440721722E-5   -2.0391567669256643E-6   -1.1940047694578339E-7
1.275                     0.48                     0                        NaN                      NaN                      NaN                      NaN                      -3.6620997751955653E-9   5.043372659086715E-5     -5.012262449735631E-5    -2.458448601411258E-4    0.005826036694492133     0.05117977807406876      0.0755136981292549       0.02207108265508969      2.163315131033301E-6     3.9872350199659324E-6    1.129957659207457E-6     1.1114332898437795E-6    7.604892547438727E-8     4.453040216444691E-9
1.325                     0.48                     0                        NaN                      NaN                      NaN                      NaN                      7.0209672850419036E-6    4.9039333771177664E-5    -1.3519938987343772E-4   -2.86798539064576E-4     0.00554152479707333      0.04947299572651194      0.07294325562756525      0.021302671646323466     4.203522960690082E-5     7.74728932548015E-5      2.1955341876771974E-5    2.1595398896910433E-5    1.4776594590382614E-6    8.652273211901919E-8
1.375                     0.48                     0                        NaN                      NaN                      NaN                      NaN                      7.020967285041902E-6     4.903933377117766E-5     -1.351993898734377E-4    -2.867985390645759E-4    0.005541524797073328     0.04947299572651193      0.07294325562756523      0.02130267164632346      4.203522960690081E-5     7.747289325480149E-5     2.195534187677197E-5     2.1595398896910426E-5    1.4776594590382612E-6    8.652273211901917E-8
1.425                     0.48                     0                        NaN                      NaN                      NaN                      NaN                      3.822763592474363E-6     2.9537345208784208E-5    -5.5042764232166136E-5   -1.2692447609277812E-4   0.004215399398401467     0.03800475614090245      0.05598450537356656      0.01634431537904744      4.71818534593395E-5      8.695822352658558E-5     2.464342574744617E-5     2.4239413272602984E-5    1.6585758287553675E-6    9.711607029933653E-8
1.475                     0.48                     0                        NaN                      NaN                      NaN                      NaN                      1.384361575641667E-7     1.2118700164376775E-5    4.143679940025775E-5     4.099362109022915E-5     0.0025874351080944786    0.02353405350884474      0.03464343738527702      0.010117697612996131     2.2678219532095907E-5    4.179686185294576E-5     1.1844972376114563E-5    1.1650782703199164E-5    7.972018691609158E-7     4.66794392293892E-8
1.525                     0.48                     0                        NaN                      NaN                      NaN                      NaN                      1.3843615756416666E-7    1.2118700164376777E-5    4.143679940025775E-5     4.099362109022915E-5     0.0025874351080944786    0.023534053508844736     0.03464343738527702      0.010117697612996131     2.2678219532095904E-5    4.179686185294576E-5     1.184497237611456E-5     1.1650782703199163E-5    7.972018691609156E-7     4.66794392293892E-8
1.575                     0.48                     0                        NaN                      NaN                      NaN                      NaN                      1.4117855150597073E-8    1.2286224703242687E-5    3.957025488009737E-5     3.0078568468044256E-5    0.002119824966367793     0.01889796206341922      0.02774819453392014      0.008055727427445755     -1.2646694092407722E-5   -2.3308423012311236E-5   -6.6054662423898705E-6   -6.497171990406126E-6    -4.445678706574827E-7    -2.603090814317823E-8
1.625                     0.48                     0                        NaN                      NaN                      NaN                      NaN                      -2.2853463744032518E-8   6.128804388272656E-6     2.2710168752934425E-5    2.0415453237992425E-5    0.0010704669268094525    0.009310599314012543     0.013019511354181255     0.003428807598385917     7.557025896632729E-6     1.3927916274225527E-5    3.947083510650459E-6     3.882376115689566E-6     2.656502879034691E-7     1.555535582699984E-8
1.675                     0.48                     0                        NaN                      NaN                      NaN                      NaN                      -3.9234038077149704E-8   4.529722120828762E-6     1.4319587385557179E-5    1.1993912934668477E-5    2.8673981157532766E-4    0.002318149125326685     0.002693704147147999     5.000806303213853E-4     2.2421148387575523E-6    4.132327725878597E-6     1.1710757640578238E-6    1.1518762885421615E-6    7.881650748558474E-8     4.6151526945507915E-9
1.725                     0.48                     0                        NaN                      NaN                      NaN                      NaN                      -4.855233901176283E-8    2.539238618896385E-6     1.0593591170188564E-5    8.647985152041145E-6     1.0035250220676297E-4    6.786482485687331E-4     5.786415555099495E-4     5.32034818929774E-5      8.457660150816859E-8     1.5589100548500045E-7    4.4177885644932276E-8    4.345364719031899E-8     2.973766828681953E-9     1.7398908487207072E-10
0.025                     0.62                     0                        NaN                      NaN                      NaN                      NaN                      0.0022319057460660576    0.021689469400302017     0.09423847570108165      0.05844796506356378      0.19000198680297006      0.9144823803380844       1.2851305090348628       0.3703142292158807       -1.3987307277582963E-5   -2.5812065602076332E-5   -7.314983392323888E-6    -7.195075383183699E-6    -4.923124518794217E-7    -2.8846379620150352E-8
0.07500000000000001       0.62                     0                        NaN                      NaN                      NaN                      NaN                      0.002758834270532869     0.02581442805082258      0.10709062886994776      0.0653182132955155       0.19116967326937032      0.90707260129894         1.2729154001645047       0.3668046811741533       4.462346733975838E-5     8.238389255319468E-5     2.334709569354638E-5     2.296441603795635E-5     1.5712983000772164E-6    9.208980918794914E-8
0.125                     0.62                     0                        NaN                      NaN                      NaN                      NaN                      0.0038642445985609345    0.03404221420957062      0.13098341359199414      0.07765913090251422      0.1920633817005151       0.8900439574461977       1.2520474363837586       0.36201998202506536      8.339011427950823E-6     1.5364578192610215E-5    4.354225821916846E-6     4.282840975307625E-6     2.9305398539746274E-7    1.7157195821696172E-8
0.17500000000000002       0.62                     0                        NaN                      NaN                      NaN                      NaN                      0.005559916798569988     0.046495524940192316     0.1666173957835201       0.09586808019324522      0.19257932360942995      0.8623933197202338       1.2221774172303668       0.35607242832344466      -1.582519944468205E-4    -2.920928183454295E-4    -8.277733437754686E-5    -8.14204898300461E-5     -5.571066248796956E-6    -3.2646128399373113E-7
0.225                     0.62                     0                        NaN                      NaN                      NaN                      NaN                      0.010095137094299562     0.07498515246450752      0.22571735561846673      0.1223415193003845       0.1933614759546112       0.8190595162039196       1.1709729019894435       0.34396994204045295      5.583510939812493E-4     0.0010274828506647996    2.911822412459073E-4     2.8640762049206606E-4    1.9597788312242055E-5    1.146583335966385E-6
0.275                     0.62                     0                        NaN                      NaN                      NaN                      NaN                      0.015977487439092407     0.11145670872836191      0.29793429015449324      0.1539169387847334       0.19428733433877982      0.7670013652705521       1.1081086779063452       0.32863105017290695      0.0022531767051895014    0.00414962482871188      0.001175978019306357     0.0011566969173428321    7.914752157316906E-5     4.632556731008009E-6
0.32500000000000007       0.62                     0                        NaN                      NaN                      NaN                      NaN                      0.029517158794516163     0.17634461083165395      0.3894047710218315       0.18574560610401789      0.1978136475924675       0.7174985223979645       1.0051832383819712       0.2940207349348782       -0.005066155272415894    -0.009326827263459802    -0.0026431649810594042   -0.0025998262954998303   -1.7789520541616988E-4   -1.0410299273607773E-5
0.37500000000000006       0.62                     0                        NaN                      NaN                      NaN                      NaN                      0.05267179731319628      0.26408797323985433      0.4883813709769596       0.20835887129451885      0.20230626436565616      0.6440166411911215       0.867689776326873        0.2482663921479288       -0.003321138037889299    -0.006107269399103264    -0.001730761859042251    -0.0017023795398845298   -1.1648851247655559E-4   -6.812664998745142E-6
0.42500000000000004       0.62                     0                        NaN                      NaN                      NaN                      NaN                      0.09133874123826534      0.3931395981786594       0.609276234463093        0.22149578214507915      0.20896439235945874      0.5310737691418557       0.6709842096621506       0.1834345192049778       0.011516748506346304     0.021230002257466657     0.00601645250284654      0.005917818954842995     4.049243045987656E-4     2.3712340222562978E-5
0.47500000000000003       0.62                     5724715.219824624        1073.1500000000003       1073.1500000000003       1073.1500000000003       1073.1500000000003       0.12924025645951087      0.5215160214953369       0.7191877512598607       0.22706359569217904      0.21334440286355227      0.4153709487390838       0.47779311872980934      0.12115388208687956      0.026030797678164734     0.047973609303638684     0.01359542614145658      0.013372536685811101     9.150133078050113E-4     5.35761886545131E-5
0.525                     0.62                     4753239.181930474        1073.1499999999999       1073.1499999999999       1073.1499999999999       1073.1499999999999       0.14516749361117262      0.5786279712936837       0.7562400825526083       0.22040692555884311      0.21120451867649576      0.3533064243724711       0.3846722904936414       0.09309931264087987      0.030575763899501993     0.056351902044379815     0.015969782951262862     0.015707968410950526     0.0010748142304079587    6.293417432538558E-5
0.5750000000000001        0.62                     3975182.0807585274       1073.15                  1073.15                  1073.15                  1073.15                  0.1536926501671058       0.6090838886955987       0.7718590285463961       0.21229980019144173      0.20733234192865457      0.30250062997603155      0.3110503037283776       0.07138857045274652      0.03340316923802811      0.061564195714773506     0.017446915040247087     0.01716088457771673      0.0011742293514225434    6.875606500209678E-5
0.6250000000000001        0.62                     4303422.031655557        1073.1500000000005       1073.1500000000005       1073.1500000000005       1073.1500000000005       0.1330628282750613       0.5350138133584077       0.7074098063587363       0.20365069815034892      0.20044712953873287      0.31827850268162994      0.3461633033303064       0.08400254386349405      0.028179783458996244     0.051937064393375997     0.014718645131422476     0.01447734277103116      9.906086806681616E-4     5.800424627030353E-5
0.675                     0.62                     4631661.982552585        1073.15                  1073.15                  1073.15                  1073.15                  0.11243300638301686      0.4609437380212169       0.6429605841710766       0.19500159610925616      0.1935619171488112       0.3340563753872284       0.3812763029322352       0.09661651727424159      0.02295639767996439      0.04230993307197851      0.011990375222597868     0.011793800964345597     8.069880099137802E-4     4.725242753851032E-5
0.7250000000000001        0.62                     4954262.337063512        1073.15                  1073.15                  1073.15                  1073.15                  0.0920307057765868       0.3874869207200228       0.5791809908512779       0.18648020765196677      0.18676006348039162      0.34965007679078064      0.415809026087351        0.10899282366261584      0.017931722142001134     0.03304901430114772      0.009365887700519916     0.00921234008899424      6.303522081757876E-4     3.690958843240955E-5
0.775                     0.62                     0                        NaN                      NaN                      NaN                      NaN                      0.07429378252206212      0.32042108350068554      0.506122531388525        0.1711314944955767       0.17420160840493493      0.36863795831807034      0.4557258861198872       0.12276241672671588      0.01381566394450802      0.02546284352566607      0.007216013483561253     0.007097711611673456     4.8565927169221993E-4    2.843720275100414E-5
0.8250000000000001        0.62                     0                        NaN                      NaN                      NaN                      NaN                      0.04853532455225671      0.2181480220214953       0.373146816752808        0.13671914845428962      0.1458204663608578       0.40450376630773666      0.528813708188618        0.1473613591904659       0.008212032863409088     0.01513511814799469      0.0042891995349469       0.004218880884737357     2.8867594624330594E-4    1.690307762865736E-5
0.8750000000000001        0.62                     0                        NaN                      NaN                      NaN                      NaN                      0.022776866582451295     0.11587496054230499      0.240171102117091        0.1023068024130025       0.11743932431678064      0.4403695742974029       0.6019015302573488       0.17196030165421589      0.0026084017823101552    0.004807392770323309     0.001362385586332545     0.0013400501578012558    9.169262079439187E-5     5.368952506310579E-6
0.925                     0.62                     0                        NaN                      NaN                      NaN                      NaN                      0.0021389452682417584    0.033932811759755474     0.13362969585085865      0.07473530373594879      0.09470008359826909      0.46910560050009537      0.6604601878699111       0.19166920812582         -0.0018812806925158918   -0.0034672789491172395   -9.826055635119054E-4    -9.664963788385192E-4    -6.613229153504477E-5    -3.872298153269899E-6
0.9750000000000001        0.62                     0                        NaN                      NaN                      NaN                      NaN                      0.0021389452682417584    0.03393281175975547      0.13362969585085863      0.07473530373594878      0.09470008359826908      0.46910560050009525      0.660460187869911        0.19166920812581997      -0.0018812806925158914   -0.0034672789491172386   -9.826055635119052E-4    -9.664963788385191E-4    -6.613229153504476E-5    -3.872298153269898E-6