% Model:              fresh_fueleigen_1st.mph
% Version:            COMSOL 5.3.1.180
% Date:               Apr 20 2018, 15:53
% Dimension:          2
% Nodes:              1330
% Expressions:        19
% Description:        , , , , , , , , , , , , , , , , , , 
% Length unit:        m
% cpl1x                   cpl1y                    PdensityN (W/m^3) @ lambda=1 Tp221 (K) @ lambda=1     Tp231 (K) @ lambda=1     Tp241 (K) @ lambda=1     Tp31 (K) @ lambda=1      Flux1 (1/(m^2*s)) @ lambda=1 Flux2 (1/(m^2*s)) @ lambda=1 Flux3 (1/(m^2*s)) @ lambda=1 Flux4 (1/(m^2*s)) @ lambda=1 Flux5 (1/(m^2*s)) @ lambda=1 Flux6 (1/(m^2*s)) @ lambda=1 Flux7 (1/(m^2*s)) @ lambda=1 Flux8 (1/(m^2*s)) @ lambda=1 Conc1 (1/(m^2*s)) @ lambda=1 Conc2 (1/(m^2*s)) @ lambda=1 Conc3 (1/(m^2*s)) @ lambda=1 Conc4 (1/(m^2*s)) @ lambda=1 Conc5 (1/(m^2*s)) @ lambda=1 Conc6 (1/(m^2*s)) @ lambda=1
0.025                     0.48                     0                        NaN                      NaN                      NaN                      NaN                      7.440699183205237E-4     0.007201288242520275     0.030632282675932272     0.018808215622297626     0.06036642650286317      0.28826806094165935      0.40493092704070777      0.11676632849979905      -1.038310380875624E-5    -1.9111650170375926E-5   -5.344488405029474E-6    -5.252210075129511E-6    -3.621468321694892E-7    -2.1029232699294133E-8
0.07500000000000001       0.48                     0                        NaN                      NaN                      NaN                      NaN                      9.847600726436126E-4     0.00907542606626196      0.03638532259694154      0.021871658406683536     0.06093330983581349      0.28508407226314963      0.3993566843008561       0.11510345474366929      6.062740847956648E-6     1.1223630198794998E-5    3.1386162112034725E-6    3.084428953983078E-6     2.1267599377347636E-7    1.2361027535715155E-8
0.125                     0.48                     0                        NaN                      NaN                      NaN                      NaN                      0.0011379662551094106    0.01015988513651688      0.03936377671762693      0.02337675990969005      0.06105082332130947      0.28303930455804166      0.3966696655009617       0.11443928115896962      1.4499586929221483E-5    2.668895617538007E-5     7.46345177068142E-6      7.3345829265220545E-6    5.057277025147316E-7     2.93671121542029E-8
0.17500000000000002       0.48                     0                        NaN                      NaN                      NaN                      NaN                      0.001978847338448588     0.016034392396760896     0.05521963272569545      0.03129806678842756      0.06115600990049389      0.27069645966781963      0.3832957923662784       0.11169587291339658      -1.6105210215852066E-5   -2.9057032805463197E-5   -8.125902252509243E-6    -7.9855307864962E-6      -5.50600675765732E-7     -3.187537539971114E-8
0.225                     0.48                     0                        NaN                      NaN                      NaN                      NaN                      0.003097375014305689     0.023720351409102794     0.07216923431687529      0.039091241834195226     0.06105696596219355      0.257500486576054        0.3693895574156537       0.10876236287490648      3.402405058082098E-4     6.13064569375432E-4      1.7144598587964747E-4    1.684841972924546E-4     1.1616931492955132E-5    6.72412986612506E-7
0.275                     0.48                     0                        NaN                      NaN                      NaN                      NaN                      0.0052845879107985       0.03631361675747846      0.09524543875225204      0.04873019685435241      0.06132811834460408      0.24113988771531863      0.3480215335298844       0.10316861360962801      5.491481098296609E-4     9.913741132837415E-4     2.772410262649541E-4     2.724518184223244E-4     1.878550388504416E-5     1.0876619027145429E-6
0.32500000000000007       0.48                     0                        NaN                      NaN                      NaN                      NaN                      0.010198366897233486     0.059552888578097214     0.12781864186586694      0.05990295112231832      0.06297987735425488      0.2228034040760517       0.3105780342300044       0.09063921628972664      -5.689189155754512E-4    -0.0010135773186840799   -2.834556010528158E-4    -2.7855743439628237E-4   -1.9206212124012195E-5   -1.1097573125224305E-6
0.37500000000000006       0.48                     0                        NaN                      NaN                      NaN                      NaN                      0.012027115569755473     0.06808276943123509      0.13952977684453688      0.06385105899872691      0.06359431478639277      0.2162991428993572       0.29689601211718947      0.08601299785010308      -0.0011777596700229206   -0.0021076963714357043   -5.894315867265139E-4    -5.79247232346815E-4     -3.993861818689387E-5    -2.3093009714141202E-6
0.42500000000000004       0.48                     0                        NaN                      NaN                      NaN                      NaN                      0.023607971914059424     0.10692848461050108      0.17640854071678208      0.06818112270436084      0.06476228926442755      0.1810239396305726       0.23802342829432646      0.0668168554002147       0.0026899634503186162    0.004904156952777815     0.0013714443756178817    0.001347759055482233     9.292872929335967E-5     5.388591639070983E-6
0.47500000000000003       0.48                     2006155.833495001        1073.15                  1073.15                  1073.15                  1073.15                  0.0364355788366698       0.1499561805021258       0.21725753086746324      0.07297734446157596      0.066056003395269        0.1419511432678311       0.17281284788940132      0.0455541298765778       0.006974070808030193     0.012670879513519157     0.00354342072357776      0.003482219449667818     2.4010006582106608E-4    1.3915209844497398E-5
0.525                     0.48                     2006155.833495           1073.15                  1073.15                  1073.15                  1073.15                  0.03643557883666978      0.14995618050212572      0.2172575308674631       0.07297734446157592      0.06605600339526896      0.141951143267831        0.1728128478894012       0.04555412987657778      0.006974070808030189     0.01267087951351915      0.003543420723577758     0.003482219449667816     2.4010006582106592E-4    1.391520984449739E-5
0.5750000000000001        0.48                     1277494.1692426414       1073.15                  1073.15                  1073.15                  1073.15                  0.04937456544855766      0.1951334648204085       0.24694098225719974      0.06814587004649118      0.06423286066155313      0.0938488007769785       0.10285484837780143      0.024363392795371898     0.011107663214116522     0.02020084783334562      0.005649173962811805     0.005551604886551079     3.8278520952683725E-4    2.218798962446845E-5
0.6250000000000001        0.48                     1548099.5001669575       1073.1499999999996       1073.1499999999996       1073.1499999999996       1073.1499999999996       0.030531741328967438     0.12821414554725566      0.18889675097056002      0.06009423857348821      0.05878556565832467      0.10819465574253405      0.13161108515642186      0.03481451062627458      0.006182007775774455     0.01124221250809497      0.003143888801932989     0.0030895894036380954    2.1302831873596338E-4    1.2347992896123132E-5
0.675                     0.48                     1608326.3676703295       1073.15                  1073.15                  1073.15                  1073.15                  0.026670685066908176     0.11450862259853369      0.17709253384349877      0.05853557102154902      0.05771833380179117      0.11147089148801516      0.1379453937402575       0.03707937188865743      0.0051660870897045       0.00939438138804052      0.0026271422950785183    0.0025817677984500977    1.7801382649931347E-4    1.0318352273028875E-5
0.7250000000000001        0.48                     1608326.3676703307       1073.1499999999999       1073.1499999999999       1073.1499999999999       1073.1499999999999       0.026670685066908197     0.11450862259853377      0.1770925338434989       0.05853557102154906      0.05771833380179122      0.11147089148801524      0.1379453937402576       0.03707937188865746      0.005166087089704503     0.009394381388040527     0.00262714229507852      0.0025817677984500994    1.780138264993136E-4     1.0318352273028881E-5
0.775                     0.48                     0                        NaN                      NaN                      NaN                      NaN                      0.02667068506690819      0.11450862259853374      0.17709253384349885      0.05853557102154905      0.057718333801791206     0.11147089148801521      0.13794539374025758      0.037079371888657446     0.005166087089704502     0.009394381388040525     0.00262714229507852      0.0025817677984500994    1.7801382649931357E-4    1.031835227302888E-5
0.8250000000000001        0.48                     0                        NaN                      NaN                      NaN                      NaN                      0.026670685066908194     0.11450862259853375      0.17709253384349888      0.058535571021549056     0.057718333801791206     0.11147089148801521      0.13794539374025758      0.03707937188865745      0.005166087089704504     0.009394381388040527     0.00262714229507852      0.0025817677984501       1.780138264993136E-4     1.031835227302888E-5
0.8750000000000001        0.48                     0                        NaN                      NaN                      NaN                      NaN                      9.395947585087117E-4     0.012078393276847942     0.044515191327606216     0.02435646759945666      0.030745489631905563     0.14942190526668225      0.20971351461540225      0.0607986693532478       -5.615058235971907E-4    -0.001021083414654023    -2.855463608341464E-4    -2.8061456816116074E-4   -1.9348476041145978E-5   -1.121510965098472E-6
0.925                     0.48                     0                        NaN                      NaN                      NaN                      NaN                      6.810232059727993E-4     0.01104907259494617      0.04318292250904669      0.02401300202026         0.030474439703211325     0.14980327474754945      0.21043471197683752      0.06103702441309841      -6.190623660575255E-4    -0.0011257483500352007   -3.148159494441256E-4    -3.093786292100813E-4    -2.133176848496793E-5    -1.2364700734311452E-6
0.9750000000000001        0.48                     0                        NaN                      NaN                      NaN                      NaN                      6.810232059727991E-4     0.011049072594946169     0.043182922509046685     0.024013002020259997     0.03047443970321132      0.14980327474754943      0.2104347119768375       0.0610370244130984       -6.190623660575254E-4    -0.0011257483500352005   -3.1481594944412556E-4   -3.093786292100813E-4    -2.133176848496793E-5    -1.236470073431145E-6
1.025                     0.48                     0                        NaN                      NaN                      NaN                      NaN                      6.81023205972799E-4      0.011049072594946165     0.04318292250904667      0.02401300202025999      0.030474439703211315     0.14980327474754937      0.21043471197683744      0.061037024413098384     -6.190623660575253E-4    -0.0011257483500352002   -3.148159494441255E-4    -3.093786292100812E-4    -2.133176848496792E-5    -1.2364700734311445E-6
1.075                     0.48                     0                        NaN                      NaN                      NaN                      NaN                      6.810232059727989E-4     0.011049072594946165     0.043182922509046665     0.024013002020259987     0.030474439703211308     0.14980327474754937      0.2104347119768374       0.06103702441309838      -6.190623660575252E-4    -0.0011257483500352      -3.1481594944412545E-4   -3.0937862921008114E-4   -2.1331768484967918E-5   -1.2364700734311445E-6
1.125                     0.48                     0                        NaN                      NaN                      NaN                      NaN                      5.112262798883389E-4     0.008292002910782553     0.03294951848163856      0.018688202729528446     0.025937349514326274     0.13982578868364812      0.19781896464427487      0.0573335287806546       -3.6784620865108996E-4   -6.689175446063325E-4    -1.8706304312729593E-4   -1.838321977471193E-4    -1.2675296494886317E-5   -7.347080500182627E-7
1.175                     0.48                     0                        NaN                      NaN                      NaN                      NaN                      2.7518315063172596E-5    -5.508223611679079E-4    -0.0015589388581256538   -1.6354409957646497E-5   0.009461816732788618     0.0919096832870553       0.1350610120407945       0.03916680370868677      2.2782489098060134E-4    4.142943200954902E-4     1.158575624293763E-4     1.1385653687274335E-4    7.850449481309441E-6     4.550418596662364E-7
1.225                     0.48                     0                        NaN                      NaN                      NaN                      NaN                      4.046636954322327E-5     -1.1084072443412857E-4   -0.001110784886880324    -7.500413688675156E-4    0.0069614948248729585    0.06335004927725597      0.09378906277521858      0.02740728075086346      -6.0602669036796355E-5   -1.1020523554341876E-4   -3.0818935089934224E-5   -3.0286648758096663E-5   -2.0882756566234944E-6   -1.2104466664583087E-7
1.275                     0.48                     0                        NaN                      NaN                      NaN                      NaN                      7.181846898420863E-8     5.2028246677014295E-5    -5.6816884614592644E-5   -2.560648692742957E-4    0.005976192874109179     0.052221919860592866     0.07702215600582529      0.022498882165503237     2.3132943323060827E-6    4.208183620451117E-6     1.1768200245447922E-6    1.1564936057435156E-6    7.974058039057609E-8     4.622025557045379E-9
1.325                     0.48                     0                        NaN                      NaN                      NaN                      NaN                      7.298547534957299E-6     5.026350232172731E-5     -1.4494667727387703E-4   -2.982686615581119E-4    0.005683141293639277     0.05047722427501612      0.07440963156147345      0.02171815374708668      4.3963193713786655E-5    7.994790456945544E-5     2.2357461425363867E-5    2.1971314972547688E-5    1.5149301106466422E-6    8.781111641629495E-8
1.375                     0.48                     0                        NaN                      NaN                      NaN                      NaN                      7.2985475349572975E-6    5.0263502321727294E-5    -1.4494667727387697E-4   -2.9826866155811186E-4   0.005683141293639276     0.05047722427501611      0.07440963156147344      0.021718153747086678     4.396319371378665E-5     7.994790456945543E-5     2.2357461425363863E-5    2.1971314972547684E-5    1.514930110646642E-6     8.781111641629494E-8
1.425                     0.48                     0                        NaN                      NaN                      NaN                      NaN                      3.978986961447977E-6     3.0337442442059645E-5    -5.985593873649874E-5    -1.3286023641124502E-4   0.0043225228965638966    0.0387732908418622       0.057116080542457065     0.016665090003609967     4.93297169245502E-5      8.970572815620606E-5     2.508624074177078E-5     2.4652964665752014E-5    1.69983088764506E-6      9.852868172541802E-8
1.475                     0.48                     0                        NaN                      NaN                      NaN                      NaN                      1.599056085363686E-7     1.2606367854849936E-5    4.2080309106895194E-5    4.0821974777334894E-5    0.0026527651328576802    0.024009481812472686     0.03535069246629589      0.01031886208876515      2.3713681194535453E-5    4.3122332740609756E-5    1.205917723962884E-5     1.1850897542878085E-5    8.171235130757383E-7     4.736368175567367E-8
1.525                     0.48                     0                        NaN                      NaN                      NaN                      NaN                      1.5990560853636856E-7    1.2606367854849938E-5    4.2080309106895194E-5    4.0821974777334894E-5    0.0026527651328576802    0.024009481812472686     0.03535069246629588      0.01031886208876515      2.3713681194535453E-5    4.312233274060975E-5     1.2059177239628838E-5    1.1850897542878082E-5    8.171235130757383E-7     4.736368175567367E-8
1.575                     0.48                     0                        NaN                      NaN                      NaN                      NaN                      3.104286539129674E-8     1.2771755243343427E-5    4.016442212983607E-5     2.9782346721469014E-5    0.0021742957659920763    0.019283427916308955     0.028313872092029572     0.008215839788419702     -1.3208437638060329E-5   -2.401944065312106E-5    -6.717045375133528E-6    -6.601032060032092E-6    -4.551435041621072E-7    -2.6381595479927512E-8
1.625                     0.48                     0                        NaN                      NaN                      NaN                      NaN                      -1.5841354408666183E-8   6.355604733737703E-6     2.3172670611637887E-5    2.04044594360484E-5      0.0011012423019220075    0.00950129252591051      0.013288659515321467     0.003496993154272492     7.897375506474946E-6     1.4361257045467687E-5    4.016133064052303E-6     3.94676653478518E-6      2.7213137492772607E-7    1.5773231569154206E-8
1.675                     0.48                     0                        NaN                      NaN                      NaN                      NaN                      -3.803493102749064E-8    4.685432398677524E-6     1.4685203638076404E-5    1.206577177297127E-5     2.9748662922801276E-4    0.0023652329026441947    0.002752273060821194     5.09893609074012E-4      2.3429663817175552E-6    4.260639398831086E-6     1.1914899432092944E-6    1.1709116951929925E-6    8.073521244750716E-8     4.679540177767545E-9
1.725                     0.48                     0                        NaN                      NaN                      NaN                      NaN                      -5.05565924850023E-8     2.590921229294719E-6     1.0904259309541293E-5    8.776927778303331E-6     1.0439039178949718E-4    6.925053011823155E-4     5.922684130676758E-4     5.429296122529105E-5     8.765742544102677E-8     1.5939039082034213E-7    4.4574298586751047E-8    4.3804409675333E-8       3.0197908552543698E-9    1.7521462809409768E-10
0.025                     0.62                     0                        NaN                      NaN                      NaN                      NaN                      0.0022594192141609506    0.022266719160069733     0.09644749011819313      0.05952008121913904      0.19262601324516862      0.919999210156396        1.291169801853094        0.37208005770938907      -1.4327992127363378E-5   -2.635778170459074E-5    -7.370843773753835E-6    -7.243576204107356E-6    -4.994536865322062E-7    -2.900027645521337E-8
0.07500000000000001       0.62                     0                        NaN                      NaN                      NaN                      NaN                      0.002794035541673887     0.026474184415003186     0.1095206171522369       0.06649100710252558      0.19379053643513441      0.9124899564488159       1.2788401219778347       0.3685431032466754       4.553366351625797E-5     8.409758444108231E-5     2.3517412065364234E-5    2.3111382115152775E-5    1.593563928651747E-6     9.258364210633922E-8
0.125                     0.62                     0                        NaN                      NaN                      NaN                      NaN                      0.003915464524245012     0.03485411196091777      0.13380193025960072      0.07901561090704833      0.19458318571611607      0.8952165295716185       1.2577773304047912       0.3637010147153828       8.599356648611147E-6     1.5599101640722102E-5    4.362312780909307E-6     4.286961758869863E-6     2.9558625085307903E-7    1.7125362141756012E-8
0.17500000000000002       0.62                     0                        NaN                      NaN                      NaN                      NaN                      0.005635731153813115     0.047529769247762615     0.17000345405366452      0.09749956753409227      0.19488761685521205      0.8671791728025611       1.2276590210321685       0.3576720560120204       -1.619348010877515E-4    -2.9841280809123375E-4   -8.344970418703126E-5    -8.200887173843613E-5    -5.654620877055589E-6    -3.2841683344982487E-7
0.225                     0.62                     0                        NaN                      NaN                      NaN                      NaN                      0.010239719953723343     0.0765637856951453       0.2300406919308353       0.12434738544832502      0.19540318003308316      0.823228023757333        1.1758819275759254       0.3453650632875327       5.852539182909462E-4     0.001049820085832771     2.93588320407876E-4      2.8851591893686176E-4    1.989298473401444E-5     1.1506527547701844E-6
0.275                     0.62                     0                        NaN                      NaN                      NaN                      NaN                      0.016208940292067653     0.11371767821135827      0.30336634518756933      0.15634788743168773      0.19603321566851278      0.7704400796311575       1.1122463416284862       0.3297457313859514       0.002343778263444446     0.004234136674815364     0.0011840890682305472    0.0011636348324728907    8.023247524161935E-5     4.645871001399088E-6
0.32500000000000007       0.62                     0                        NaN                      NaN                      NaN                      NaN                      0.029940605689489988     0.17991574060330887      0.3960784723755433       0.18835154016151523      0.19973724719636848      0.7203914426951243       1.0072055088736096       0.29458599190393786      -0.005290625000383057    -0.009526845512660776    -0.002664223359172631    -0.0026181972513415206   -1.8052374232844064E-4   -1.044805244078573E-5
0.37500000000000006       0.62                     0                        NaN                      NaN                      NaN                      NaN                      0.05347609475432794      0.2693112486115653       0.4963388140359888       0.2110367070112566       0.20342904019098182      0.6445015812147531       0.8690506734666502       0.24900168302351036      -0.0035046547874014048   -0.0062479864495057595   -0.0017473015976985033   -0.0017171083336187773   -1.183927014276668E-4    -6.841465974095131E-6
0.42500000000000004       0.62                     0                        NaN                      NaN                      NaN                      NaN                      0.09276453175120317      0.4004016363679767       0.6185354430213269       0.22412548547089814      0.20786791798718546      0.5264905757306033       0.6737651925863287       0.1853521812979261       0.011894924221903021     0.021668444235184988     0.006059573508379565     0.005954920527704294     4.10594701128496E-4      2.380598286269412E-5
0.47500000000000003       0.62                     5702801.402994167        1073.1500000000003       1073.1500000000003       1073.1500000000003       1073.1500000000003       0.13095249563266512      0.5289320065351845       0.7283136107771254       0.22962840345499275      0.21017529375281344      0.4072702857524744       0.48401917803078404      0.12463992334786977      0.027097165031048094     0.049255060155241136     0.013774204251718738     0.013536301660276005     9.333324981410082E-4     5.409604718892063E-5
0.525                     0.62                     4773029.581669065        1073.1499999999999       1073.1499999999999       1073.1499999999999       1073.1499999999999       0.14663958215381104      0.5839575030540205       0.7637092334480402       0.22294269248529233      0.20740877136542096      0.34573836600127195      0.3948832616505461       0.09774521221943908      0.03206485937844837      0.058304447141589714     0.016304862447402264     0.016023253650441507     0.0011048090604792887    6.403812760353539E-5
0.5750000000000001        0.62                     4030406.147427978        1073.15                  1073.15                  1073.15                  1073.15                  0.1549957117712613       0.6129728033408813       0.7783886772913107       0.21491792660349945      0.20335600793771735      0.2958579120225593       0.32446700693890734      0.07692556158326613      0.03521212166708822      0.06403921760482323      0.017908588562282293     0.01759928249983808      0.0012134770562663335    7.033887800199117E-5
0.6250000000000001        0.62                     4350863.769951063        1073.1500000000005       1073.1500000000005       1073.1500000000005       1073.1500000000005       0.13459211523853742      0.5407608884407029       0.7160336401614743       0.2066401195621116       0.19769928309471127      0.3132064342744388       0.35814602907669507      0.08899807227232574      0.029682290179865962     0.05398142355046152      0.015095923440490235     0.014835195889492364     0.0010228922417672712    5.92915352131265E-5
0.675                     0.62                     4671321.3924741475       1073.15                  1073.15                  1073.15                  1073.15                  0.11418851870581356      0.4685489735405246       0.6536786030316383       0.19836231252072373      0.1920425582517052       0.3305549565263182       0.39182505121448286      0.10107058296138532      0.024152458692643722     0.04392362949609982      0.01228325831869818      0.012071109279146654     8.323074272682095E-4     4.8244192424261876E-5
0.7250000000000001        0.62                     4986281.550526369        1073.15                  1073.15                  1073.15                  1073.15                  0.09400459144860601      0.39691420648694126      0.5919725862683305       0.1902120201878112       0.18646260137716753      0.34768363731269664      0.42494935047108795      0.11291599808044704      0.018832819469092144     0.03424789395485256      0.009577436071853442     0.009412020194622514     6.489622268960263E-4     3.761645641888664E-5
0.775                     0.62                     0                        NaN                      NaN                      NaN                      NaN                      0.07614656164044388      0.32970151116100155      0.5187998376121329       0.1748049257620007       0.1746830667420753       0.3683903731315708       0.46443032165691156      0.12636353478206364      0.014493326938199678     0.02635569947073278      0.00737038128841282      0.007243084285131462     4.994132897055909E-4     2.8947876304873137E-5
0.8250000000000001        0.62                     0                        NaN                      NaN                      NaN                      NaN                      0.04973804057629327      0.22457456798733796      0.38273208842246237      0.1397259780043356       0.14700009975999004      0.4073405355525017       0.5380879051152807       0.15070729788004683      0.008614941829565856     0.015666023349814942     0.004381009334054827     0.004305343050061013     2.9685496584756115E-4    1.720683207883543E-5
0.8750000000000001        0.62                     0                        NaN                      NaN                      NaN                      NaN                      0.023329519512142648     0.11944762481367437      0.24666433923279185      0.10464703024667044      0.11931713277790475      0.44629069797343246      0.6117454885736497       0.17505106097803005      0.0027365567209320326    0.0049763472288971       0.0013916373796968315    0.0013676018149905637    9.429664198953134E-5     5.465787852797724E-6
0.925                     0.62                     0                        NaN                      NaN                      NaN                      NaN                      0.002170761469038297     0.03521891889639091      0.13764556549758628      0.07654144393957873      0.09713727655398607      0.4774979382578137       0.6707606444261693       0.1945555153167511       -0.001973261291808362    -0.003588322865737201    -0.0010034758388531501   -9.86144380607134E-4     -6.799501204583525E-5    -3.941248359061774E-6
0.9750000000000001        0.62                     0                        NaN                      NaN                      NaN                      NaN                      0.0021707614690382967    0.0352189188963909       0.13764556549758625      0.07654144393957872      0.09713727655398606      0.4774979382578136       0.6707606444261692       0.19455551531675108      -0.001973261291808362    -0.0035883228657372004   -0.00100347583885315     -9.861443806071337E-4    -6.799501204583524E-5    -3.9412483590617735E-6