% Model:              eigen_1st.mph
% Version:            COMSOL 5.3.1.180
% Date:               Apr 23 2018, 21:54
% Dimension:          2
% Nodes:              1330
% Expressions:        19
% Description:        , , , , , , , , , , , , , , , , , , 
% Length unit:        m
% cpl1x                   cpl1y                    PdensityN (W/m^3) @ lambda=1 Tp221 (K) @ lambda=1     Tp231 (K) @ lambda=1     Tp241 (K) @ lambda=1     Tp31 (K) @ lambda=1      Flux1 (1/(m^2*s)) @ lambda=1 Flux2 (1/(m^2*s)) @ lambda=1 Flux3 (1/(m^2*s)) @ lambda=1 Flux4 (1/(m^2*s)) @ lambda=1 Flux5 (1/(m^2*s)) @ lambda=1 Flux6 (1/(m^2*s)) @ lambda=1 Flux7 (1/(m^2*s)) @ lambda=1 Flux8 (1/(m^2*s)) @ lambda=1 Conc1 (1/(m^2*s)) @ lambda=1 Conc2 (1/(m^2*s)) @ lambda=1 Conc3 (1/(m^2*s)) @ lambda=1 Conc4 (1/(m^2*s)) @ lambda=1 Conc5 (1/(m^2*s)) @ lambda=1 Conc6 (1/(m^2*s)) @ lambda=1
0.025                     0.48                     0                        NaN                      NaN                      NaN                      NaN                      7.440699183212771E-4     0.007201288242521767     0.030632282675934715     0.01880821562229956      0.06036642650286658      0.2882680609416751       0.40493092704072997      0.11676632849980542      -1.0383103808753198E-5   -1.9111650170329905E-5   -5.344488404333736E-6    -5.252210075294683E-6    -3.6214683212533826E-7   -2.102923267476749E-8
0.07500000000000001       0.48                     0                        NaN                      NaN                      NaN                      NaN                      9.84760072643653E-4      0.009075426066263511     0.036385322596944325     0.02187165840668872      0.06093330983581672      0.2850840722631651       0.3993566843008777       0.11510345474367557      6.062740848330289E-6     1.1223630198697755E-5    3.1386162120099372E-6    3.0844289539658886E-6    2.126759940824003E-7     1.2361027558880284E-8
0.125                     0.48                     0                        NaN                      NaN                      NaN                      NaN                      0.0011379662551093527    0.010159885136518103     0.03936377671762933      0.02337675990968115      0.06105082332131266      0.28303930455805704      0.3966696655009834       0.11443928115897589      1.4499586929785006E-5    2.66889561752271E-5      7.463451771357589E-6     7.3345829265031335E-6    5.057277026170773E-7     2.9367112099448504E-8
0.17500000000000002       0.48                     0                        NaN                      NaN                      NaN                      NaN                      0.001978847338448418     0.016034392396761632     0.05521963272569747      0.03129806678842749      0.0611560099004973       0.27069645966783434      0.38329579236629957      0.11169587291340267      -1.6105210213046805E-5   -2.90570328049077E-5     -8.125902252253893E-6    -7.985530786577687E-6    -5.506006757951724E-7    -3.187537521728433E-8
0.225                     0.48                     0                        NaN                      NaN                      NaN                      NaN                      0.0030973750143050696    0.023720351409104206     0.07216923431687838      0.03909124183423483      0.061056965962196966     0.25750048657606806      0.3693895574156737       0.10876236287491237      3.4024050580941476E-4    6.130645693757498E-4     1.7144598587976798E-4    1.6848419729256512E-4    1.1616931492722073E-5    6.724129867697675E-7
0.275                     0.48                     0                        NaN                      NaN                      NaN                      NaN                      0.005284587910797584     0.03631361675748107      0.09524543875225658      0.04873019685443304      0.061328118344607455     0.2411398877153318       0.34802153352990295      0.10316861360963357      5.491481098284367E-4     9.913741132837567E-4     2.77241026264959E-4      2.724518184226845E-4     1.8785503884548426E-5    1.0876619027409663E-6
0.32500000000000007       0.48                     0                        NaN                      NaN                      NaN                      NaN                      0.010198366897233937     0.059552888578100927     0.12781864186587374      0.059902951122363934     0.06297987735425827      0.22280340407606392      0.3105780342300212       0.0906392162897316       -5.689189155767803E-4    -0.0010135773186840348   -2.834556010528736E-4    -2.7855743439588837E-4   -1.920621212427052E-5    -1.1097573125773911E-6
0.37500000000000006       0.48                     0                        NaN                      NaN                      NaN                      NaN                      0.012027115569756672     0.06808276943123898      0.13952977684454473      0.06385105899873973      0.06359431478639617      0.21629914289936902      0.2968960121172058       0.0860129978501078       -0.0011777596700242989   -0.002107696371435841    -5.894315867265728E-4    -5.792472323464957E-4    -3.9938618186937854E-5   -2.309300971453443E-6
0.42500000000000004       0.48                     0                        NaN                      NaN                      NaN                      NaN                      0.023607971914061037     0.10692848461050683      0.17640854071679216      0.06818112270437351      0.06476228926443131      0.18102393963058253      0.23802342829433948      0.06681685540021833      0.0026899634503180264    0.0049041569527776266    0.0013714443756177187    0.0013477590554825192    9.292872929342589E-5     5.388591639035662E-6
0.47500000000000003       0.48                     2006155.8334951138       1073.15                  1073.15                  1073.15                  1073.15                  0.036435578836671874     0.1499561805021336       0.21725753086747573      0.07297734446158848      0.06605600339527312      0.14195114326783895      0.1728128478894107       0.04555412987658024      0.006974070808030477     0.012670879513518913     0.0035434207235774807    0.003482219449668068     2.4010006582125435E-4    1.3915209844466508E-5
0.525                     0.48                     2006155.8334951128       1073.15                  1073.15                  1073.15                  1073.15                  0.03643557883667185      0.14995618050213352      0.2172575308674756       0.07297734446158843      0.0660560033952731       0.14195114326783886      0.1728128478894106       0.04555412987658021      0.006974070808030473     0.012670879513518906     0.0035434207235774786    0.0034822194496680657    2.4010006582125422E-4    1.3915209844466502E-5
0.5750000000000001        0.48                     1277494.1692427215       1073.15                  1073.15                  1073.15                  1073.15                  0.04937456544856035      0.19513346482041927      0.246940982257213        0.06814587004650838      0.06423286066155685      0.09384880077698374      0.10285484837780706      0.024363392795373272     0.011107663214116789     0.02020084783334669      0.00564917396281245      0.00555160488655137      3.827852095268609E-4     2.2187989624415573E-5
0.6250000000000001        0.48                     1548099.5001670537       1073.1499999999996       1073.1499999999996       1073.1499999999996       1073.1499999999996       0.030531741328969103     0.12821414554726282      0.18889675097057057      0.06009423857350883      0.05878556565832797      0.1081946557425399       0.13161108515642886      0.034814510626276496     0.006182007775776701     0.0112422125080959       0.003143888801932957     0.0030895894036384723    2.1302831873597775E-4    1.2347992896023821E-5
0.675                     0.48                     1608326.367670429        1073.15                  1073.15                  1073.15                  1073.15                  0.026670685066909634     0.1145086225985401       0.17709253384350873      0.05853557102157029      0.057718333801794405     0.11147089148802117      0.1379453937402648       0.03707937188865946      0.00516608708970714      0.009394381388041408     0.0026271422950783444    0.002581767798450491     1.780138264993274E-4     1.0318352272920519E-5
0.7250000000000001        0.48                     1608326.36767043         1073.1499999999999       1073.1499999999999       1073.1499999999999       1073.1499999999999       0.02667068506690965      0.11450862259854018      0.17709253384350887      0.05853557102157034      0.05771833380179445      0.11147089148802125      0.1379453937402649       0.037079371888659486     0.005166087089707143     0.009394381388041415     0.002627142295078346     0.0025817677984504932    1.7801382649932753E-4    1.0318352272920527E-5
0.775                     0.48                     0                        NaN                      NaN                      NaN                      NaN                      0.026670685066909644     0.11450862259854015      0.17709253384350881      0.05853557102157032      0.05771833380179443      0.11147089148802122      0.13794539374026488      0.03707937188865947      0.0051660870897071425    0.009394381388041413     0.0026271422950783457    0.002581767798450493     1.7801382649932748E-4    1.0318352272920526E-5
0.8250000000000001        0.48                     0                        NaN                      NaN                      NaN                      NaN                      0.02667068506690965      0.11450862259854015      0.17709253384350884      0.05853557102157032      0.05771833380179443      0.11147089148802122      0.13794539374026488      0.03707937188865948      0.005166087089707143     0.009394381388041415     0.002627142295078346     0.0025817677984504932    1.780138264993275E-4     1.0318352272920526E-5
0.8750000000000001        0.48                     0                        NaN                      NaN                      NaN                      NaN                      9.395947585088128E-4     0.012078393276849135     0.04451519132760896      0.024356467599449056     0.030745489631907198     0.14942190526669016      0.20971351461541346      0.060798669353251025     -5.615058235949547E-4    -0.0010210834146539465   -2.8554636083376924E-4   -2.806145681611497E-4    -1.9348476040973888E-5   -1.1215109651934238E-6
0.925                     0.48                     0                        NaN                      NaN                      NaN                      NaN                      6.81023205972887E-4      0.011049072594947312     0.043182922509049364     0.024013002020252104     0.030474439703212942     0.14980327474755736      0.21043471197684877      0.061037024413101645     -6.190623660552936E-4    -0.0011257483500351322   -3.148159494437429E-4    -3.093786292100741E-4    -2.1331768484794253E-5   -1.2364700735259625E-6
0.9750000000000001        0.48                     0                        NaN                      NaN                      NaN                      NaN                      6.810232059728869E-4     0.01104907259494731      0.04318292250904936      0.0240130020202521       0.03047443970321294      0.14980327474755734      0.21043471197684874      0.06103702441310164      -6.190623660552936E-4    -0.001125748350035132    -3.1481594944374284E-4   -3.0937862921007404E-4   -2.133176848479425E-5    -1.2364700735259623E-6
1.025                     0.48                     0                        NaN                      NaN                      NaN                      NaN                      6.810232059728866E-4     0.011049072594947307     0.04318292250904935      0.024013002020252097     0.03047443970321293      0.14980327474755728      0.21043471197684868      0.06103702441310162      -6.190623660552934E-4    -0.0011257483500351317   -3.148159494437428E-4    -3.09378629210074E-4     -2.1331768484794243E-5   -1.2364700735259618E-6
1.075                     0.48                     0                        NaN                      NaN                      NaN                      NaN                      6.810232059728865E-4     0.011049072594947305     0.04318292250904934      0.024013002020252094     0.030474439703212928     0.14980327474755728      0.21043471197684865      0.06103702441310161      -6.190623660552933E-4    -0.0011257483500351315   -3.1481594944374273E-4   -3.0937862921007393E-4   -2.133176848479424E-5    -1.2364700735259616E-6
1.125                     0.48                     0                        NaN                      NaN                      NaN                      NaN                      5.112262798884078E-4     0.008292002910783434     0.032949518481640586     0.018688202729523515     0.025937349514327697     0.1398257886836555       0.19781896464428542      0.05733352878065764      -3.6784620864934163E-4   -6.689175446062862E-4    -1.8706304312698124E-4   -1.8383219774712484E-4   -1.2675296494733773E-5   -7.347080500844224E-7
1.175                     0.48                     0                        NaN                      NaN                      NaN                      NaN                      2.7518315063128625E-5    -5.508223611678807E-4    -0.0015589388581257794   -1.635440995569298E-5    0.009461816732789253     0.09190968328706006      0.1350610120408015       0.03916680370868883      2.2782489098054477E-4    4.142943200955869E-4     1.1585756242943899E-4    1.1385653687272227E-4    7.85044948130948E-6      4.550418596784566E-7
1.225                     0.48                     0                        NaN                      NaN                      NaN                      NaN                      4.0466369543160085E-5    -1.1084072443395105E-4   -0.0011107848868803297   -7.500413688601011E-4    0.0069614948248736515    0.06335004927725921      0.09378906277522345      0.027407280750864866     -6.0602669038380056E-5   -1.1020523554274326E-4   -3.081893508964797E-5    -3.028664875804223E-5    -2.0882756567121406E-6   -1.210446667531591E-7
1.275                     0.48                     0                        NaN                      NaN                      NaN                      NaN                      7.181846904753535E-8     5.202824667745513E-5     -5.6816884614482014E-5   -2.5606486925434675E-4   0.005976192874110148     0.05222191986059552      0.0770221560058294       0.02249888216550435      2.313294329420194E-6     4.208183621639037E-6     1.176820025185183E-6     1.1564936058586918E-6    7.974058035160897E-8     4.622025375792319E-9
1.325                     0.48                     0                        NaN                      NaN                      NaN                      NaN                      7.298547535071614E-6     5.026350232224526E-5     -1.4494667727376045E-4   -2.9826866153498735E-4   0.005683141293640305     0.05047722427501868      0.07440963156147744      0.021718153747087746     4.3963193710709344E-5    7.994790457074415E-5     2.2357461426090428E-5    2.197131497267759E-5     1.5149301106302794E-6    8.781111623588883E-8
1.375                     0.48                     0                        NaN                      NaN                      NaN                      NaN                      7.298547535071612E-6     5.026350232224525E-5     -1.4494667727376042E-4   -2.982686615349873E-4    0.005683141293640304     0.05047722427501867      0.07440963156147742      0.021718153747087743     4.396319371070933E-5     7.994790457074414E-5     2.235746142609042E-5     2.1971314972677585E-5    1.5149301106302792E-6    8.781111623588882E-8
1.425                     0.48                     0                        NaN                      NaN                      NaN                      NaN                      3.978986961696687E-6     3.0337442442620472E-5    -5.985593873642161E-5    -1.3286023640673398E-4   0.0043225228965644924    0.0387732908418642       0.05711608054246001      0.016665090003610793     4.932971692325346E-5     8.970572815676512E-5     2.5086240742185928E-5    2.465296466578909E-5     1.6998308876730527E-6    9.852868165653458E-8
1.475                     0.48                     0                        NaN                      NaN                      NaN                      NaN                      1.5990560870395265E-7    1.2606367855056758E-5    4.208030910705004E-5     4.082197476414372E-5     0.0026527651328576984    0.024009481812473973     0.03535069246629754      0.010318862088765663     2.371368119171961E-5     4.3122332739932515E-5    1.20591772396489E-5      1.1850897542828878E-5    8.171235131041347E-7     4.7363681795082664E-8
1.525                     0.48                     0                        NaN                      NaN                      NaN                      NaN                      1.5990560870395263E-7    1.260636785505676E-5     4.208030910705004E-5     4.082197476414372E-5     0.0026527651328576984    0.024009481812473973     0.03535069246629753      0.010318862088765663     2.3713681191719603E-5    4.31223327399325E-5      1.2059177239648897E-5    1.1850897542828873E-5    8.171235131041347E-7     4.736368179508265E-8
1.575                     0.48                     0                        NaN                      NaN                      NaN                      NaN                      3.10428654137318E-8      1.2771755243116862E-5    4.016442212996819E-5     2.9782346716341358E-5    0.002174295765991966     0.01928342791630997      0.028313872092030883     0.008215839788420129     -1.3208437643120971E-5   -2.401944065395384E-5    -6.717045375192714E-6    -6.601032060038453E-6    -4.551435041007277E-7    -2.638159536932012E-8
1.625                     0.48                     0                        NaN                      NaN                      NaN                      NaN                      -1.5841355181088054E-8   6.355604733090883E-6     2.3172670611869822E-5    2.040445944030224E-5     0.0011012423019215662    0.009501292525910962     0.013288659515321936     0.003496993154272781     7.89737550476131E-6      1.4361257045108614E-5    4.016133065293665E-6     3.946766534747982E-6     2.7213137515757036E-7    1.577323141662159E-8
1.675                     0.48                     0                        NaN                      NaN                      NaN                      NaN                      -3.803493131953685E-8    4.685432398049296E-6     1.4685203636951867E-5    1.2065771777118947E-5    2.974866292279562E-4     0.002365232902644179     0.0027522730608211       5.098936090740658E-4     2.3429663885279903E-6    4.260639396746253E-6     1.1914899434735052E-6    1.1709116954952147E-6    8.073521260618653E-8     4.6795401257251816E-9
1.725                     0.48                     0                        NaN                      NaN                      NaN                      NaN                      -5.055659192762283E-8    2.5909212290154637E-6    1.0904259308005379E-5    8.776927783377384E-6     1.043903917894156E-4     6.925053011823534E-4     5.922684130678424E-4     5.4292961225259654E-5    8.765742579603932E-8     1.5939039078327806E-7    4.4574298631144685E-8    4.3804410336943597E-8    3.0197907083806984E-9    1.752147168417714E-10
0.025                     0.62                     0                        NaN                      NaN                      NaN                      NaN                      0.002259419214161719     0.022266719160072695     0.09644749011819911      0.05952008121912894      0.19262601324517925      0.919999210156446        1.2911698018531645       0.3720800577094092       -1.4327992130386872E-5   -2.635778170438318E-5    -7.370843772969709E-6    -7.2435762045266496E-6   -4.994536865286944E-7    -2.9000276518164078E-8
0.07500000000000001       0.62                     0                        NaN                      NaN                      NaN                      NaN                      0.002794035541673413     0.02647418441500467      0.10952061715224272      0.06649100710252458      0.1937905364351447       0.9124899564488655       1.278840121977904        0.3685431032466953       4.5533663509538246E-5    8.409758444304571E-5     2.3517412065999793E-5    2.311138211478876E-5     1.5935639286398613E-6    9.258364170873609E-8
0.125                     0.62                     0                        NaN                      NaN                      NaN                      NaN                      0.003915464524244579     0.03485411196091913      0.13380193025960804      0.07901561090703527      0.19458318571612654      0.8952165295716672       1.2577773304048594       0.36370101471540245      8.59935664183323E-6      1.5599101642546794E-5    4.36231278136652E-6      4.2869617586352215E-6    2.95586250640141E-7      1.7125361749271834E-8
0.17500000000000002       0.62                     0                        NaN                      NaN                      NaN                      NaN                      0.0056357311538138       0.04752976924776471      0.1700034540536752       0.09749956753404337      0.19488761685522277      0.8671791728026086       1.2276590210322358       0.35767205601203983      -1.6193480109476152E-4   -2.984128080908134E-4    -8.344970418692627E-5    -8.200887173836574E-5    -5.654620877355236E-6    -3.284168337482511E-7
0.225                     0.62                     0                        NaN                      NaN                      NaN                      NaN                      0.010239719953723865     0.07656378569514957      0.23004069193084872      0.12434738544830756      0.19540318003309404      0.8232280237573779       1.17588192757599         0.3453650632875515       5.852539182855432E-4     0.001049820085832595     2.935883204080226E-4     2.885159189370102E-4     1.9892984734033176E-5    1.1506527544586029E-6
0.275                     0.62                     0                        NaN                      NaN                      NaN                      NaN                      0.016208940292068603     0.11371767821136497      0.30336634518758715      0.1563478874317378       0.19603321566852333      0.7704400796311996       1.1122463416285466       0.32974573138596935      0.002343778263445107     0.004234136674816147     0.0011840890682306882    0.0011636348324729926    8.023247524178135E-5     4.645871001352615E-6
0.32500000000000007       0.62                     0                        NaN                      NaN                      NaN                      NaN                      0.029940605689491754     0.1799157406033193       0.39607847237556637      0.18835154016153025      0.19973724719637906      0.7203914426951638       1.0072055088736644       0.29458599190395396      -0.005290625000380767    -0.009526845512661072    -0.0026642233591731043   -0.0026181972513413783   -1.8052374232854188E-4   -1.0448052440841693E-5
0.37500000000000006       0.62                     0                        NaN                      NaN                      NaN                      NaN                      0.05347609475433088      0.2693112486115803       0.4963388140360177       0.2110367070112553       0.20342904019099287      0.6445015812147883       0.8690506734666976       0.24900168302352393      -0.003504654787398015    -0.00624798644950674     -0.0017473015976993815   -0.0017171083336185743   -1.1839270142774083E-4   -6.841465974148816E-6
0.42500000000000004       0.62                     0                        NaN                      NaN                      NaN                      NaN                      0.09276453175120837      0.4004016363679982       0.6185354430213627       0.2241254854709116       0.2078679179871975       0.5264905757306323       0.6737651925863654       0.1853521812979361       0.011894924221906219     0.02166844423518448      0.006059573508378787     0.005954920527704772     4.105947011288007E-4     2.3805982862648413E-5
0.47500000000000003       0.62                     5702801.402994483        1073.1500000000003       1073.1500000000003       1073.1500000000003       1073.1500000000003       0.13095249563267292      0.528932006535213        0.7283136107771664       0.22962840345502383      0.21017529375282568      0.4072702857524969       0.48401917803081035      0.12463992334787653      0.02709716503105021      0.04925506015524235      0.01377420425171894      0.013536301660276875     9.33332498141469E-4      5.409604718887715E-5
0.525                     0.62                     4773029.581669343        1073.1499999999999       1073.1499999999999       1073.1499999999999       1073.1499999999999       0.14663958215381942      0.5839575030540527       0.763709233448082        0.2229426924853337       0.2074087713654329       0.34573836600129115      0.39488326165056775      0.09774521221944447      0.03206485937845007      0.05830444714159236      0.016304862447403583     0.016023253650442423     0.001104809060479534     6.403812760343918E-5
0.5750000000000001        0.62                     4030406.1474282243       1073.15                  1073.15                  1073.15                  1073.15                  0.15499571177126975      0.6129728033409152       0.7783886772913527       0.21491792660354636      0.20335600793772907      0.2958579120225758       0.3244670069389251       0.07692556158327046      0.03521212166709064      0.0640392176048268       0.01790858856228416      0.017599282499839056     0.0012134770562664513    7.033887800185269E-5
0.6250000000000001        0.62                     4350863.769951331        1073.1500000000005       1073.1500000000005       1073.1500000000005       1073.1500000000005       0.13459211523854475      0.5407608884407329       0.7160336401615134       0.20664011956216635      0.19769928309472254      0.313206434274456        0.3581460290767145       0.08899807227233068      0.029682290179869907     0.05398142355046487      0.015095923440491429     0.014835195889493419     0.001022892241767355     5.929153521291931E-5
0.675                     0.62                     4671321.392474437        1073.15                  1073.15                  1073.15                  1073.15                  0.11418851870581978      0.4685489735405507       0.6536786030316742       0.19836231252078645      0.19204255825171607      0.33055495652633615      0.3918250512145038       0.1010705829613909       0.02415245869264919      0.043923629496102956     0.012283258318698705     0.012071109279147786     8.323074272682588E-4     4.824419242398596E-5
0.7250000000000001        0.62                     4986281.550526678        1073.15                  1073.15                  1073.15                  1073.15                  0.09400459144861116      0.3969142064869634       0.5919725862683635       0.19021202018787747      0.186462601377178        0.3476836373127154       0.42494935047111054      0.11291599808045324      0.01883281946909964      0.03424789395485549      0.00957743607185322      0.009412020194623732     6.489622268960717E-4     3.761645641856232E-5
0.775                     0.62                     0                        NaN                      NaN                      NaN                      NaN                      0.07614656164044806      0.32970151116102014      0.5187998376121621       0.17480492576205858      0.17468306674208503      0.36839037313159056      0.4644303216569362       0.1263635347820705       0.014493326938207953     0.02635569947073533      0.007370381288412456     0.0072430842851325845    4.994132897056897E-4     2.8947876304532372E-5
0.8250000000000001        0.62                     0                        NaN                      NaN                      NaN                      NaN                      0.04973804057629605      0.22457456798735123      0.3827320884224842       0.13972597800436382      0.14700009975999814      0.40734053555252336      0.5380879051153094       0.15070729788005496      0.008614941829573716     0.01566602334981666      0.004381009334055027     0.004305343050061743     2.9685496584782234E-4    1.720683207850842E-5
0.8750000000000001        0.62                     0                        NaN                      NaN                      NaN                      NaN                      0.02332951951214404      0.11944762481368229      0.24666433923280628      0.10464703024666902      0.11931713277791123      0.44629069797345616      0.6117454885736824       0.1750510609780394       0.002736556720939479     0.004976347228897985     0.0013916373796975985    0.0013676018149909007    9.429664198995486E-5     5.465787852484472E-6
0.925                     0.62                     0                        NaN                      NaN                      NaN                      NaN                      0.0021707614690385764    0.035218918896394544     0.13764556549759482      0.07654144393955356      0.09713727655399122      0.4774979382578389       0.6707606444262053       0.19455551531676143      -0.0019732612918012477   -0.0035883228657369827   -0.0010034758388519302   -9.86144380607111E-4     -6.799501204528166E-5    -3.941248359364004E-6
0.9750000000000001        0.62                     0                        NaN                      NaN                      NaN                      NaN                      0.002170761469038576     0.03521891889639454      0.1376455654975948       0.07654144393955355      0.09713727655399121      0.47749793825783887      0.6707606444262052       0.1945555153167614       -0.0019732612918012477   -0.0035883228657369822   -0.00100347583885193     -9.861443806071107E-4    -6.799501204528164E-5    -3.941248359364003E-6