% Model:              eigen_1st.mph
% Version:            COMSOL 5.3.1.180
% Date:               Apr 26 2018, 21:35
% Dimension:          2
% Nodes:              1330
% Expressions:        19
% Description:        , , , , , , , , , , , , , , , , , , 
% Length unit:        m
% cpl1x                   cpl1y                    PdensityN (W/m^3) @ lambda=1 Tp221 (K) @ lambda=1     Tp231 (K) @ lambda=1     Tp241 (K) @ lambda=1     Tp31 (K) @ lambda=1      Flux1 (1/(m^2*s)) @ lambda=1 Flux2 (1/(m^2*s)) @ lambda=1 Flux3 (1/(m^2*s)) @ lambda=1 Flux4 (1/(m^2*s)) @ lambda=1 Flux5 (1/(m^2*s)) @ lambda=1 Flux6 (1/(m^2*s)) @ lambda=1 Flux7 (1/(m^2*s)) @ lambda=1 Flux8 (1/(m^2*s)) @ lambda=1 Conc1 (1/(m^2*s)) @ lambda=1 Conc2 (1/(m^2*s)) @ lambda=1 Conc3 (1/(m^2*s)) @ lambda=1 Conc4 (1/(m^2*s)) @ lambda=1 Conc5 (1/(m^2*s)) @ lambda=1 Conc6 (1/(m^2*s)) @ lambda=1
0.025                     0.48                     0                        NaN                      NaN                      NaN                      NaN                      7.440699183208545E-4     0.007201288242520584     0.030632282675930298     0.018808215622296683     0.06036642650285885      0.2882680609416392       0.40493092704067934      0.11676632849979088      -1.0383103806467434E-5   -1.911165017018797E-5    -5.344488405130322E-6    -5.252210075285274E-6    -3.621468320447881E-7    -2.102923268121281E-8
0.07500000000000001       0.48                     0                        NaN                      NaN                      NaN                      NaN                      9.847600726435642E-4     0.009075426066261775     0.03638532259693878      0.021871658406682672     0.06093330983580879      0.2850840722631295       0.3993566843008278       0.11510345474366122      6.062740848470638E-6     1.122363019931125E-5     3.1386162109265342E-6    3.0844289537729794E-6    2.1267599411593877E-7    1.236102753571517E-8
0.125                     0.48                     0                        NaN                      NaN                      NaN                      NaN                      0.0011379662551088952    0.010159885136516637     0.03936377671762389      0.023376759909689848     0.0610508233213048       0.2830393045580216       0.39666966550093374      0.11443928115896163      1.4499586930826853E-5    2.668895617587894E-5     7.463451770568714E-6     7.334582926423898E-6     5.057277026367314E-7     2.9367112154202934E-8
0.17500000000000002       0.48                     0                        NaN                      NaN                      NaN                      NaN                      0.0019788473384482223    0.01603439239675917      0.05521963272569001      0.03129806678843113      0.06115600990048964      0.27069645966780054      0.3832957923662514       0.11169587291338873      -1.6105210213094814E-5   -2.905703280490096E-5    -8.125902252516768E-6    -7.985530786596058E-6    -5.506006757932336E-7    -3.187537539971118E-8
0.225                     0.48                     0                        NaN                      NaN                      NaN                      NaN                      0.003097375014305053     0.023720351409101004     0.07216923431686854      0.03909124183420831      0.06105696596218943      0.2575004865760358       0.3693895574156277       0.10876236287489882      3.402405058098196E-4     6.130645693765051E-4     1.7144598587964764E-4    1.6848419729240187E-4    1.1616931492961266E-5    6.724129864276611E-7
0.275                     0.48                     0                        NaN                      NaN                      NaN                      NaN                      0.005284587910797377     0.03631361675747643      0.0952454387522436       0.048730196854376844     0.06132811834459995      0.2411398877153016       0.3480215335298599       0.10316861360962078      5.491481098292171E-4     9.913741132853604E-4     2.7724102626495924E-4    2.724518184223582E-4     1.878550388505776E-5     1.0876619023398462E-6
0.32500000000000007       0.48                     0                        NaN                      NaN                      NaN                      NaN                      0.010198366897232216     0.059552888578093016     0.12781864186585687      0.05990295112233646      0.0629798773542505       0.22280340407603597      0.3105780342299828       0.0906392162897203       -5.689189155781299E-4    -0.001013577318683379    -2.834556010527844E-4    -2.7855743439608076E-4   -1.9206212124012215E-5   -1.1097573126856095E-6
0.37500000000000006       0.48                     0                        NaN                      NaN                      NaN                      NaN                      0.012027115569754328     0.06808276943122989      0.13952977684452667      0.06385105899873551      0.06359431478638833      0.2162991428993419       0.296896012117169        0.08601299785009704      -0.0011777596700264183   -0.002107696371435706    -5.894315867264731E-4    -5.792472323465521E-4    -3.993861818689392E-5    -2.3093009714141228E-6
0.42500000000000004       0.48                     0                        NaN                      NaN                      NaN                      NaN                      0.023607971914057533     0.10692848461049315      0.17640854071676926      0.0681811227043654       0.06476228926442296      0.1810239396305598       0.2380234282943099       0.06681685540021         0.002689963450316122     0.004904156952777431     0.0013714443756177798    0.0013477590554822733    9.292872929335977E-5     5.38859163905963E-6
0.47500000000000003       0.48                     2006155.8334948663       1073.15                  1073.15                  1073.15                  1073.15                  0.03643557883666708      0.14995618050211484      0.21725753086744753      0.07297734446157603      0.06605600339526424      0.14195114326782104      0.17281284788938908      0.045554129876574576     0.00697407080802881      0.01267087951351835      0.0035434207235775       0.003482219449667612     2.4010006582106633E-4    1.3915209844473473E-5
0.525                     0.48                     2006155.833494865        1073.15                  1073.15                  1073.15                  1073.15                  0.03643557883666706      0.14995618050211476      0.2172575308674474       0.07297734446157599      0.0660560033952642       0.14195114326782096      0.17281284788938897      0.04555412987657455      0.006974070808028806     0.012670879513518344     0.0035434207235774976    0.00348221944966761      2.4010006582106616E-4    1.3915209844473464E-5
0.5750000000000001        0.48                     1277494.1692425553       1073.15                  1073.15                  1073.15                  1073.15                  0.04937456544855402      0.19513346482039412      0.24694098225718136      0.06814587004648813      0.0642328606615486       0.09384880077697196      0.10285484837779424      0.024363392795370198     0.0111076632141154       0.020200847833344283     0.005649173962811557     0.005551604886550687     3.8278520952683763E-4    2.218798962443043E-5
0.6250000000000001        0.48                     1548099.5001668634       1073.1499999999996       1073.1499999999996       1073.1499999999996       1073.1499999999996       0.030531741328965172     0.12821414554724614      0.18889675097054626      0.06009423857349673      0.05878556565832056      0.10819465574252649      0.13161108515641268      0.03481451062627217      0.006182007775776122     0.011242212508094207     0.0031438888019325994    0.0030895894036378916    2.130283187359543E-4     1.234799289605318E-5
0.675                     0.48                     1608326.3676702331       1073.15                  1073.15                  1073.15                  1073.15                  0.026670685066906192     0.11450862259852515      0.17709253384348592      0.05853557102155987      0.05771833380178716      0.11147089148800735      0.13794539374024786      0.03707937188865487      0.005166087089706718     0.009394381388039877     0.0026271422950781007    0.002581767798449933     1.7801382649930251E-4    1.0318352272952694E-5
0.7250000000000001        0.48                     1608326.367670234        1073.1499999999999       1073.1499999999999       1073.1499999999999       1073.1499999999999       0.026670685066906213     0.11450862259852523      0.17709253384348606      0.058535571021559915     0.0577183338017872       0.11147089148800743      0.13794539374024795      0.0370793718886549       0.005166087089706722     0.009394381388039883     0.002627142295078103     0.002581767798449935     1.7801382649930262E-4    1.0318352272952703E-5
0.775                     0.48                     0                        NaN                      NaN                      NaN                      NaN                      0.026670685066906206     0.1145086225985252       0.177092533843486        0.0585355710215599       0.05771833380178719      0.1114708914880074       0.13794539374024792      0.037079371888654886     0.005166087089706722     0.009394381388039882     0.0026271422950781024    0.0025817677984499346    1.780138264993026E-4     1.0318352272952701E-5
0.8250000000000001        0.48                     0                        NaN                      NaN                      NaN                      NaN                      0.02667068506690621      0.1145086225985252       0.17709253384348603      0.05853557102155991      0.057718333801787196     0.11147089148800741      0.13794539374024792      0.03707937188865489      0.005166087089706723     0.009394381388039883     0.0026271422950781024    0.002581767798449935     1.7801382649930262E-4    1.0318352272952701E-5
0.8750000000000001        0.48                     0                        NaN                      NaN                      NaN                      NaN                      9.395947585086926E-4     0.01207839327684747      0.044515191327603315     0.024356467599449497     0.030745489631903312     0.14942190526667198      0.20971351461538806      0.06079866935324365      -5.615058235956703E-4    -0.00102108341465392     -2.855463608338665E-4    -2.806145681611062E-4    -1.93484760410252E-5     -1.1215109650992312E-6
0.925                     0.48                     0                        NaN                      NaN                      NaN                      NaN                      6.810232059728E-4        0.011049072594945778     0.04318292250904389      0.024013002020252656     0.030474439703209094     0.14980327474753913      0.21043471197682329      0.06103702441309425      -6.190623660560122E-4    -0.0011257483500350899   -3.148159494438387E-4    -3.093786292100246E-4    -2.133176848484583E-5    -1.2364700734311464E-6
0.9750000000000001        0.48                     0                        NaN                      NaN                      NaN                      NaN                      6.810232059727999E-4     0.011049072594945777     0.04318292250904388      0.024013002020252652     0.03047443970320909      0.1498032747475391       0.21043471197682326      0.06103702441309424      -6.190623660560121E-4    -0.0011257483500350897   -3.148159494438387E-4    -3.0937862921002454E-4   -2.1331768484845827E-5   -1.2364700734311464E-6
1.025                     0.48                     0                        NaN                      NaN                      NaN                      NaN                      6.810232059727997E-4     0.011049072594945775     0.04318292250904387      0.024013002020252645     0.030474439703209084     0.14980327474753907      0.2104347119768232       0.06103702441309422      -6.190623660560119E-4    -0.0011257483500350894   -3.1481594944383857E-4   -3.093786292100245E-4    -2.133176848484582E-5    -1.236470073431146E-6
1.075                     0.48                     0                        NaN                      NaN                      NaN                      NaN                      6.810232059727997E-4     0.011049072594945773     0.04318292250904386      0.024013002020252642     0.03047443970320908      0.14980327474753904      0.21043471197682317      0.061037024413094214     -6.190623660560119E-4    -0.0011257483500350892   -3.148159494438385E-4    -3.0937862921002443E-4   -2.1331768484845817E-5   -1.2364700734311458E-6
1.125                     0.48                     0                        NaN                      NaN                      NaN                      NaN                      5.11226279888347E-4      0.008292002910782277     0.0329495184816364       0.018688202729522818     0.025937349514324415     0.13982578868363857      0.19781896464426163      0.05733352878065072      -3.6784620864982015E-4   -6.689175446062792E-4    -1.8706304312706744E-4   -1.8383219774708266E-4   -1.2675296494792781E-5   -7.347080500182636E-7
1.175                     0.48                     0                        NaN                      NaN                      NaN                      NaN                      2.7518315063158366E-5    -5.508223611678565E-4    -0.001558938858125582    -1.6354409958581947E-5   0.009461816732788068     0.09190968328704929      0.13506101204078572      0.039166803708684216     2.2782489098085364E-4    4.142943200955263E-4     1.1585756242939654E-4    1.1385653687273021E-4    7.850449481309451E-6     4.5504185966623673E-7
1.225                     0.48                     0                        NaN                      NaN                      NaN                      NaN                      4.0466369543161705E-5    -1.1084072443403892E-4   -0.0011107848868802284   -7.500413688693275E-4    0.0069614948248726835    0.06335004927725188      0.09378906277521248      0.027407280750861678     -6.060266903760119E-5    -1.1020523554290036E-4   -3.081893508966682E-5    -3.0286648758091442E-5   -2.0882756566092833E-6   -1.210446666943447E-7
1.275                     0.48                     0                        NaN                      NaN                      NaN                      NaN                      7.181846896480734E-8     5.202824667727993E-5     -5.681688461459271E-5    -2.560648692748662E-4    0.005976192874109129     0.05222191986058949      0.07702215600582037      0.022498882165501777     2.3132943306360183E-6    4.208183621403833E-6     1.1768200251562484E-6    1.1564936057451724E-6    7.974058042307314E-8     4.6220254461307425E-9
1.325                     0.48                     0                        NaN                      NaN                      NaN                      NaN                      7.298547534957308E-6     5.026350232204988E-5     -1.449466772738772E-4    -2.9826866155811224E-4   0.005683141293639283     0.05047722427501285      0.07440963156146868      0.021718153747085266     4.3963193711972E-5       7.994790457052838E-5     2.235746142605245E-5     2.197131497254771E-5     1.5149301106832386E-6    8.78111162913945E-8
1.375                     0.48                     0                        NaN                      NaN                      NaN                      NaN                      7.298547534957306E-6     5.026350232204987E-5     -1.4494667727387714E-4   -2.982686615581122E-4    0.005683141293639282     0.05047722427501283      0.07440963156146867      0.021718153747085262     4.396319371197199E-5     7.994790457052836E-5     2.2357461426052447E-5    2.1971314972547705E-5    1.5149301106832382E-6    8.781111629139449E-8
1.425                     0.48                     0                        NaN                      NaN                      NaN                      NaN                      3.9789869615686835E-6    3.0337442442447203E-5    -5.985593873650601E-5    -1.3286023641722515E-4   0.004322522896563836     0.0387732908418597       0.057116080542453374     0.016665090003608884     4.9329716923369E-5       8.97057281567013E-5      2.5086240742146626E-5    2.4652964665840366E-5    1.699830887670549E-6     9.852868166777477E-8
1.475                     0.48                     0                        NaN                      NaN                      NaN                      NaN                      1.5990560879622112E-7    1.2606367855096021E-5    4.208030910688711E-5     4.0821974770594734E-5    0.002652765132857611     0.024009481812471166     0.03535069246629356      0.010318862088764478     2.3713681192782105E-5    4.3122332740091514E-5    1.2059177239645267E-5    1.1850897542949461E-5    8.171235129622276E-7     4.7363681816013695E-8
1.525                     0.48                     0                        NaN                      NaN                      NaN                      NaN                      1.599056087962211E-7     1.260636785509602E-5     4.208030910688711E-5     4.082197477059473E-5     0.002652765132857611     0.024009481812471166     0.03535069246629356      0.010318862088764478     2.3713681192782094E-5    4.31223327400915E-5      1.2059177239645267E-5    1.1850897542949461E-5    8.171235129622276E-7     4.736368181601368E-8
1.575                     0.48                     0                        NaN                      NaN                      NaN                      NaN                      3.104286554397116E-8     1.277175524330477E-5     4.016442212950914E-5     2.978234672163581E-5     0.0021742957659920785    0.019283427916307726     0.02831387209202769      0.008215839788419173     -1.3208437641987345E-5   -2.401944065375215E-5    -6.717045375133537E-6    -6.601032060068992E-6    -4.551435043329329E-7    -2.6381595347143527E-8
1.625                     0.48                     0                        NaN                      NaN                      NaN                      NaN                      -1.5841354800108275E-8   6.355604733730392E-6     2.3172670611576047E-5    2.040445943916865E-5     0.0011012423019220088    0.0095012925259099       0.013288659515320392     0.0034969931542723166    7.89737550446297E-6      1.4361257045254529E-5    4.016133064052307E-6     3.9467665346825E-6       2.721313748954054E-7     1.5773231594277666E-8
1.675                     0.48                     0                        NaN                      NaN                      NaN                      NaN                      -3.8034931188833294E-8   4.68543239842039E-6      1.4685203637532868E-5    1.2065771773716657E-5    2.974866292280131E-4     0.002365232902644043     0.002752273060820884     5.098936090739913E-4     2.342966381411322E-6     4.260639397953086E-6     1.1914899429348024E-6    1.1709116951698981E-6    8.073521233079832E-8     4.679540171543571E-9
1.725                     0.48                     0                        NaN                      NaN                      NaN                      NaN                      -5.0556592485002353E-8   2.5909212296290087E-6    1.0904259308834675E-5    8.776927778303342E-6     1.0439039178938468E-4    6.925053011822758E-4     5.922684130676318E-4     5.42929612252911E-5      8.76574292029692E-8      1.5939039075084154E-7    4.457429858675109E-8     4.3804409675333044E-8    3.019790855254373E-9     1.7521469282489473E-10
0.025                     0.62                     0                        NaN                      NaN                      NaN                      NaN                      0.0022594192141612013    0.02226671916006956      0.09644749011818651      0.05952008121913056      0.19262601324515527      0.9199992101563319       1.2911698018530038       0.37208005770936314      -1.4327992124845311E-5   -2.6357781705021126E-5   -7.370843773582587E-6    -7.243576204324361E-6    -4.994536865190067E-7    -2.9000276502783905E-8
0.07500000000000001       0.62                     0                        NaN                      NaN                      NaN                      NaN                      0.0027940355416733553    0.02647418441500167      0.10952061715222898      0.06649100710251651      0.19379053643512098      0.9124899564487521       1.2788401219777448       0.36854310324664974      4.553366351467116E-5     8.409758443947275E-5     2.3517412065785477E-5    2.3111382115038693E-5    1.5935639285898772E-6    9.258364186436049E-8
0.125                     0.62                     0                        NaN                      NaN                      NaN                      NaN                      0.003915464524244377     0.03485411196091519      0.1338019302595914       0.0790156109070343       0.19458318571610259      0.8952165295715555       1.2577773304047026       0.3637010147153574       8.599356646401072E-6     1.5599101639599702E-5    4.3623127815347304E-6    4.286961758787101E-6     2.9558625045540977E-7    1.7125361935541056E-8
0.17500000000000002       0.62                     0                        NaN                      NaN                      NaN                      NaN                      0.005635731153813002     0.04752976924775919      0.17000345405365375      0.09749956753406577      0.19488761685519837      0.8671791728025001       1.2276590210320815       0.3576720560119953       -1.6193480108839492E-4   -2.984128080908913E-4    -8.344970418687679E-5    -8.200887173839328E-5    -5.654620877705345E-6    -3.2841683357747247E-7
0.225                     0.62                     0                        NaN                      NaN                      NaN                      NaN                      0.010239719953722623     0.07656378569513977      0.23004069193081955      0.12434738544831621      0.1954031800330692       0.8232280237572751       1.1758819275758428       0.3453650632875086       5.852539182890722E-4     0.0010498200858326439    2.9358832040788914E-4    2.8851591893697375E-4    1.9892984733789342E-5    1.1506527546543708E-6
0.275                     0.62                     0                        NaN                      NaN                      NaN                      NaN                      0.01620894029206657      0.11371767821135019      0.30336634518754824      0.15634788743171252      0.19603321566849835      0.7704400796311035       1.112246341628408        0.32974573138592833      0.0023437782634447846    0.0042341366748148744    0.001184089068230889     0.0011636348324729504    8.023247524190231E-5     4.6458710013963E-6
0.32500000000000007       0.62                     0                        NaN                      NaN                      NaN                      NaN                      0.029940605689487816     0.17991574060329574      0.3960784723755155       0.18835154016151825      0.19973724719635394      0.7203914426950738       1.0072055088735394       0.2945859919039172       -0.005290625000382743    -0.009526845512660219    -0.0026642233591722417   -0.002618197251341092    -1.8052374232833962E-4   -1.0448052440699487E-5
0.37500000000000006       0.62                     0                        NaN                      NaN                      NaN                      NaN                      0.05347609475432406      0.26931124861154554      0.49633881403595376      0.2110367070112449       0.20342904019096703      0.6445015812147077       0.8690506734665898       0.24900168302349288      -0.003504654787400901    -0.006247986449505284    -0.0017473015976983254   -0.0017171083336184382   -1.1839270142766691E-4   -6.841465973991593E-6
0.42500000000000004       0.62                     0                        NaN                      NaN                      NaN                      NaN                      0.09276453175119646      0.40040163636794746      0.6185354430212828       0.22412548547088468      0.20786791798717036      0.5264905757305662       0.6737651925862815       0.18535218129791306      0.011894924221902118     0.021668444235183652     0.00605957350837913      0.005954920527703984     4.105947011284964E-4     2.3805982862714183E-5
0.47500000000000003       0.62                     5702801.402993776        1073.1500000000003       1073.1500000000003       1073.1500000000003       1073.1500000000003       0.1309524956326556       0.5289320065351456       0.7283136107770727       0.22962840345497823      0.21017529375279828      0.4072702857524458       0.48401917803075006      0.12463992334786105      0.02709716503104452      0.049255060155237874     0.013774204251717798     0.013536301660275122     9.333324981410092E-4     5.409604718885722E-5
0.525                     0.62                     4773029.581668737        1073.1499999999999       1073.1499999999999       1073.1499999999999       1073.1499999999999       0.14663958215380035      0.5839575030539775       0.763709233447984        0.22294269248527765      0.20740877136540614      0.3457383660012478       0.39488326165051857      0.09774521221943226      0.03206485937844494      0.058304447141585836     0.016304862447401383     0.016023253650440404     0.00110480906047929      6.403812760344546E-5
0.5750000000000001        0.62                     4030406.1474277074       1073.15                  1073.15                  1073.15                  1073.15                  0.15499571177124988      0.612972803340836        0.7783886772912532       0.21491792660348977      0.20335600793770303      0.29585791202253875      0.32446700693888475      0.07692556158326078      0.03521212166708595      0.06403921760481898      0.017908588562281374     0.017599282499836826     0.00121347705626635      7.033887800188816E-5
0.6250000000000001        0.62                     4350863.769950781        1073.1500000000005       1073.1500000000005       1073.1500000000005       1073.1500000000005       0.13459211523852746      0.5407608884406628       0.7160336401614216       0.2066401195621152       0.1976992830946974       0.31320643427441686      0.35814602907667015      0.08899807227231955      0.029682290179866285     0.053981423550457916     0.015095923440489215     0.014835195889491327     0.0010228922417672695    5.9291535212977485E-5
0.675                     0.62                     4671321.392473855        1073.15                  1073.15                  1073.15                  1073.15                  0.11418851870580511      0.4685489735404899       0.6536786030315904       0.1983623125207407       0.19204255825169175      0.3305549565262951       0.39182505121445543      0.1010705829613783       0.024152458692646636     0.04392362949609688      0.012283258318697064     0.012071109279145835     8.323074272681894E-4     4.824419242406683E-5
0.7250000000000001        0.62                     4986281.550526068        1073.15                  1073.15                  1073.15                  1073.15                  0.09400459144859905      0.39691420648691167      0.5919725862682874       0.19021202018784036      0.18646260137715454      0.34768363731267227      0.42494935047105825      0.11291599808043924      0.018832819469097928     0.034247893954850235     0.009577436071852179     0.0094120201946219       6.489622268959958E-4     3.761645641865832E-5
0.775                     0.62                     0                        NaN                      NaN                      NaN                      NaN                      0.07614656164043823      0.3297015111609771       0.5187998376120955       0.1748049257620291       0.17468306674206313      0.36839037313154505      0.46443032165687925      0.12636353478205492      0.01449332693820651      0.026355699470730985     0.00737038128841173      0.007243084285131014     4.994132897056013E-4     2.8947876304656303E-5
0.8250000000000001        0.62                     0                        NaN                      NaN                      NaN                      NaN                      0.04973804057628963      0.2245745679873218       0.38273208842243506      0.1397259780043455       0.14700009975997966      0.4073405355524734       0.5380879051152437       0.1507072978800365       0.008614941829571971     0.01566602334981391      0.0043810093340544524    0.004305343050060789     2.968549658477068E-4     1.7206832078696005E-5
0.8750000000000001        0.62                     0                        NaN                      NaN                      NaN                      NaN                      0.02332951951214103      0.11944762481366648      0.24666433923277473      0.10464703024666183      0.11931713277789618      0.44629069797340165      0.6117454885736081       0.1750510609780181       0.002736556720937431     0.00497634722889684      0.0013916373796971724    0.0013676018149905642    9.429664198981217E-5     5.465787852735702E-6
0.925                     0.62                     0                        NaN                      NaN                      NaN                      NaN                      0.0021707614690382993    0.03521891889638966      0.13764556549757734      0.07654144393955531      0.09713727655397897      0.4774979382577808       0.670760644426124        0.19455551531673784      -0.0019732612918035384   -0.003588322865736848    -0.0010034758388522355   -9.86144380606953E-4     -6.799501204544606E-5    -3.941248359061779E-6
0.9750000000000001        0.62                     0                        NaN                      NaN                      NaN                      NaN                      0.002170761469038299     0.03521891889638965      0.13764556549757734      0.0765414439395553       0.09713727655397894      0.47749793825778075      0.6707606444261239       0.19455551531673781      -0.001973261291803538    -0.0035883228657368474   -0.0010034758388522355   -9.861443806069529E-4    -6.799501204544605E-5    -3.941248359061778E-6