% Model:              eigen_1st.mph
% Version:            COMSOL 5.3.1.180
% Date:               Aug 3 2018, 13:58
% Dimension:          2
% Nodes:              1330
% Expressions:        19
% Description:        , , , , , , , , , , , , , , , , , , 
% Length unit:        m
% cpl1x                   cpl1y                    PdensityN (W/m^3) @ lambda=1 Tp221 (K) @ lambda=1     Tp231 (K) @ lambda=1     Tp241 (K) @ lambda=1     Tp31 (K) @ lambda=1      Flux1 (1/(m^2*s)) @ lambda=1 Flux2 (1/(m^2*s)) @ lambda=1 Flux3 (1/(m^2*s)) @ lambda=1 Flux4 (1/(m^2*s)) @ lambda=1 Flux5 (1/(m^2*s)) @ lambda=1 Flux6 (1/(m^2*s)) @ lambda=1 Flux7 (1/(m^2*s)) @ lambda=1 Flux8 (1/(m^2*s)) @ lambda=1 Conc1 (1/(m^2*s)) @ lambda=1 Conc2 (1/(m^2*s)) @ lambda=1 Conc3 (1/(m^2*s)) @ lambda=1 Conc4 (1/(m^2*s)) @ lambda=1 Conc5 (1/(m^2*s)) @ lambda=1 Conc6 (1/(m^2*s)) @ lambda=1
0.025                     0.48                     0                        NaN                      NaN                      NaN                      NaN                      7.440699183206119E-4     0.007201288242520854     0.030632282675931745     0.01880821562229747      0.060366426502862225     0.28826806094165436      0.40493092704070066      0.11676632849979708      -1.0383103806467429E-5   -1.9111650170186726E-5   -5.344488405130319E-6    -5.252210075208765E-6    -3.621468318781998E-7    -2.1029232681212795E-8
0.07500000000000001       0.48                     0                        NaN                      NaN                      NaN                      NaN                      9.847600726438548E-4     0.009075426066262524     0.03638532259694063      0.021871658406683103     0.06093330983581223      0.2850840722631446       0.3993566843008491       0.11510345474366729      6.062740848470634E-6     1.1223630199314614E-5    3.1386162109265325E-6    3.0844289539830795E-6    2.1267599434065097E-7    1.236102753571516E-8
0.125                     0.48                     0                        NaN                      NaN                      NaN                      NaN                      0.0011379662551097808    0.010159885136517423     0.03936377671762602      0.023376759909672425     0.06105082332130826      0.2830393045580366       0.3966696655009547       0.11443928115896765      1.449958692992695E-5     2.6688956175879772E-5    7.463451770544687E-6     7.334582926791145E-6     5.057277030397355E-7     2.9367112154202914E-8
0.17500000000000002       0.48                     0                        NaN                      NaN                      NaN                      NaN                      0.0019788473384489205    0.016034392396760123     0.055219632725694794     0.031298066788424485     0.06115600990049292      0.27069645966781497      0.38329579236627154      0.11169587291339465      -1.6105210216164702E-5   -2.9057032805761545E-5   -8.125902253156091E-6    -7.985530786484495E-6    -5.506006756956438E-7    -3.187537539971115E-8
0.225                     0.48                     0                        NaN                      NaN                      NaN                      NaN                      0.0030973750143054018    0.023720351409101663     0.07216923431687362      0.03909124183420832      0.0610569659621928       0.2575004865760496       0.36938955741564694      0.10876236287490462      3.402405058079741E-4     6.130645693759593E-4     1.7144598587924553E-4    1.6848419729233524E-4    1.1616931493181175E-5    6.724129864276608E-7
0.275                     0.48                     0                        NaN                      NaN                      NaN                      NaN                      0.005284587910797508     0.03631361675747713      0.09524543875224914      0.04873019685437963      0.0613281183446034       0.2411398877153145       0.348021533529878        0.10316861360962629      5.491481098292167E-4     9.913741132853598E-4     2.772410262648903E-4     2.7245181842215047E-4    1.878550388548155E-5     1.0876619023398456E-6
0.32500000000000007       0.48                     0                        NaN                      NaN                      NaN                      NaN                      0.010198366897232651     0.059552888578096104     0.12781864186586406      0.05990295112232996      0.06297987735425384      0.22280340407604787      0.3105780342299992       0.0906392162897251       -5.689189155781296E-4    -0.0010135773186833784   -2.8345560105281587E-4   -2.785574343961703E-4    -1.9206212123875708E-5   -1.1097573126856087E-6
0.37500000000000006       0.48                     0                        NaN                      NaN                      NaN                      NaN                      0.0120271155697549       0.06808276943123419      0.1395297768445343       0.06385105899872694      0.06359431478639174      0.21629914289935345      0.2968960121171848       0.0860129978501016       -0.0011777596700264174   -0.002107696371435705    -5.89431586726514E-4     -5.792472323465517E-4    -3.993861818696439E-5    -2.309300971414121E-6
0.42500000000000004       0.48                     0                        NaN                      NaN                      NaN                      NaN                      0.023607971914058695     0.10692848461049934      0.17640854071677897      0.06818112270436087      0.06476228926442655      0.18102393963056945      0.2380234282943226       0.06681685540021357      0.00268996345031612      0.004904156952777623     0.0013714443756178824    0.0013477590554823722    9.292872929332265E-5     5.388591639059626E-6
0.47500000000000003       0.48                     2006155.833494969        1073.15                  1073.15                  1073.15                  1073.15                  0.0364355788366689       0.14995618050212314      0.21725753086745955      0.07297734446157599      0.06605600339526801      0.14195114326782865      0.1728128478893984       0.04555412987657707      0.006974070808028805     0.012670879513518753     0.0035434207235777613    0.0034822194496678194    2.4010006582106616E-4    1.3915209844473463E-5
0.525                     0.48                     2006155.8334949678       1073.15                  1073.15                  1073.15                  1073.15                  0.036435578836668876     0.14995618050212306      0.21725753086745941      0.07297734446157594      0.06605600339526799      0.14195114326782857      0.17281284788939832      0.04555412987657704      0.006974070808028801     0.012670879513518744     0.003543420723577759     0.0034822194496678172    2.40100065821066E-4      1.3915209844473454E-5
0.5750000000000001        0.48                     1277494.1692426184       1073.15                  1073.15                  1073.15                  1073.15                  0.04937456544855687      0.195133464820405        0.2469409822571949       0.06814587004648809      0.06423286066155198      0.09384880077697691      0.10285484837779973      0.0243633927953715       0.011107663214116468     0.020200847833345106     0.005649173962811808     0.005551604886550949     3.827852095269242E-4     2.2187989624504465E-5
0.6250000000000001        0.48                     1548099.5001669405       1073.1499999999996       1073.1499999999996       1073.1499999999996       1073.1499999999996       0.03053174132896686      0.12821414554725286      0.18889675097055653      0.060094238573496696     0.0587855656583237       0.10819465574253224      0.13161108515641973      0.034814510626273984     0.006182007775774458     0.011242212508094616     0.0031438888019326397    0.0030895894036380737    2.130283187359692E-4     1.2347992896066E-5
0.675                     0.48                     1608326.3676703137       1073.15                  1073.15                  1073.15                  1073.15                  0.02667068506690764      0.11450862259853099      0.17709253384349552      0.05853557102155983      0.05771833380179025      0.1114708914880133       0.13794539374025525      0.037079371888656794     0.005166087089704501     0.009394381388040197     0.0026271422950780994    0.0025817677984500986    1.780138264993024E-4     1.0318352272952687E-5
0.7250000000000001        0.48                     1608326.3676703146       1073.1499999999999       1073.1499999999999       1073.1499999999999       1073.1499999999999       0.02667068506690766      0.11450862259853108      0.17709253384349566      0.05853557102155987      0.05771833380179029      0.11147089148801338      0.13794539374025533      0.03707937188865682      0.005166087089704506     0.009394381388040204     0.002627142295078101     0.0025817677984501007    1.7801382649930254E-4    1.0318352272952694E-5
0.775                     0.48                     0                        NaN                      NaN                      NaN                      NaN                      0.02667068506690765      0.11450862259853105      0.1770925338434956       0.05853557102155986      0.05771833380179028      0.11147089148801335      0.1379453937402553       0.03707937188865681      0.005166087089704505     0.009394381388040203     0.0026271422950781007    0.0025817677984501003    1.780138264993025E-4     1.0318352272952693E-5
0.8250000000000001        0.48                     0                        NaN                      NaN                      NaN                      NaN                      0.026670685066907656     0.11450862259853106      0.17709253384349563      0.058535571021559867     0.05771833380179028      0.11147089148801337      0.1379453937402553       0.037079371888656815     0.005166087089704506     0.009394381388040204     0.0026271422950781007    0.0025817677984501007    1.7801382649930251E-4    1.0318352272952694E-5
0.8750000000000001        0.48                     0                        NaN                      NaN                      NaN                      NaN                      9.395947585087066E-4     0.012078393276847921     0.04451519132760592      0.024356467599449483     0.030745489631905026     0.14942190526667956      0.20971351461539867      0.06079866935324673      -5.615058235971909E-4    -0.001021083414654027    -2.8554636083415067E-4   -2.8061456816116085E-4   -1.93484760411461E-5     -1.1215109650476473E-6
0.925                     0.48                     0                        NaN                      NaN                      NaN                      NaN                      6.810232059727996E-4     0.011049072594946174     0.04318292250904642      0.02401300202025264      0.030474439703210794     0.14980327474754673      0.21043471197683392      0.061037024413097336     -6.190623660575257E-4    -0.0011257483500352011   -3.148159494441257E-4    -3.093786292100814E-4    -2.1331768484967942E-5   -1.2364700733790442E-6
0.9750000000000001        0.48                     0                        NaN                      NaN                      NaN                      NaN                      6.810232059727995E-4     0.011049072594946174     0.043182922509046415     0.02401300202025264      0.03047443970321079      0.14980327474754673      0.2104347119768339       0.06103702441309733      -6.190623660575257E-4    -0.001125748350035201    -3.148159494441257E-4    -3.0937862921008135E-4   -2.133176848496794E-5    -1.236470073379044E-6
1.025                     0.48                     0                        NaN                      NaN                      NaN                      NaN                      6.810232059727993E-4     0.01104907259494617      0.0431829225090464       0.02401300202025263      0.03047443970321078      0.14980327474754668      0.21043471197683383      0.06103702441309731      -6.190623660575255E-4    -0.0011257483500352007   -3.148159494441256E-4    -3.093786292100813E-4    -2.1331768484967932E-5   -1.2364700733790438E-6
1.075                     0.48                     0                        NaN                      NaN                      NaN                      NaN                      6.810232059727991E-4     0.011049072594946169     0.043182922509046394     0.024013002020252628     0.030474439703210777     0.14980327474754665      0.21043471197683378      0.0610370244130973       -6.190623660575254E-4    -0.0011257483500352005   -3.1481594944412556E-4   -3.0937862921008125E-4   -2.133176848496793E-5    -1.2364700733790435E-6
1.125                     0.48                     0                        NaN                      NaN                      NaN                      NaN                      5.112262798883467E-4     0.00829200291078257      0.032949518481638365     0.018688202729522804     0.025937349514325844     0.13982578868364567      0.19781896464427154      0.057333528780653606     -3.6784620865097965E-4   -6.689175446063598E-4    -1.8706304312730474E-4   -1.8383219774713194E-4   -1.2675296494880222E-5   -7.347080499783521E-7
1.175                     0.48                     0                        NaN                      NaN                      NaN                      NaN                      2.7518315063190174E-5    -5.50822361167875E-4     -0.0015589388581256037   -1.6354409958581947E-5   0.009461816732788493     0.09190968328705379      0.1350610120407923       0.03916680370868613      2.2782489098085356E-4    4.1429432009542776E-4    1.1585756242935622E-4    1.1385653687268725E-4    7.85044948135338E-6      4.5504185969268353E-7
1.225                     0.48                     0                        NaN                      NaN                      NaN                      NaN                      4.0466369543223294E-5    -1.1084072443403888E-4   -0.0011107848868803587   -7.500413688761896E-4    0.006961494824872936     0.06335004927725492      0.09378906277521695      0.027407280750863003     -6.0602669037601145E-5   -1.1020523554300209E-4   -3.081893508993425E-5    -3.028664875812089E-5    -2.0882756565815014E-6   -1.210446665946197E-7
1.275                     0.48                     0                        NaN                      NaN                      NaN                      NaN                      7.181846898420863E-8     5.20282466772799E-5      -5.6816884614744025E-5   -2.560648692905555E-4    0.0059761928741093465    0.052221919860592006     0.0770221560058239       0.022498882165502856     2.3132943306360183E-6    4.208183621403819E-6     1.1768200245447922E-6    1.1564936057440713E-6    7.974058042307314E-8     4.622025573170345E-9
1.325                     0.48                     0                        NaN                      NaN                      NaN                      NaN                      7.298547534957303E-6     5.0263502322049844E-5    -1.4494667727404752E-4   -2.9826866157577997E-4   0.0056831412936394965    0.05047722427501529      0.0744096315614721       0.021718153747086306     4.396319371197197E-5     7.994790457052833E-5     2.2357461425363877E-5    2.1971314972547698E-5    1.5149301106832376E-6    8.781111641629498E-8
1.375                     0.48                     0                        NaN                      NaN                      NaN                      NaN                      7.298547534957301E-6     5.026350232204984E-5     -1.449466772740475E-4    -2.982686615757799E-4    0.005683141293639496     0.050477224275015276     0.07440963156147208      0.021718153747086303     4.3963193711971965E-5    7.99479045705283E-5      2.2357461425363873E-5    2.197131497254769E-5     1.5149301106832372E-6    8.781111641629496E-8
1.425                     0.48                     0                        NaN                      NaN                      NaN                      NaN                      3.978986961530729E-6     3.0337442442348205E-5    -5.9855938736588194E-5   -1.328602364259368E-4    0.004322522896564002     0.03877329084186157      0.05711608054245611      0.016665090003609682     4.932971692275475E-5     8.970572815676898E-5     2.508624074178536E-5     2.4652964665848992E-5    1.6998308876642603E-6    9.852868171216676E-8
1.475                     0.48                     0                        NaN                      NaN                      NaN                      NaN                      1.5990560850583017E-7    1.260636785505088E-5     4.208030910689521E-5     4.0821974774862425E-5    0.0026527651328576715    0.02400948181247231      0.03535069246629539      0.010318862088764976     2.3713681192089784E-5    4.312233274060977E-5     1.205917723964526E-5     1.1850897543015572E-5    8.171235130757389E-7     4.736368179218924E-8
1.525                     0.48                     0                        NaN                      NaN                      NaN                      NaN                      1.5990560850583014E-7    1.2606367855050881E-5    4.208030910689521E-5     4.0821974774862425E-5    0.0026527651328576715    0.02400948181247231      0.035350692466295394     0.010318862088764976     2.3713681192089784E-5    4.312233274060976E-5     1.205917723964526E-5     1.1850897543015572E-5    8.171235130757385E-7     4.7363681792189226E-8
1.575                     0.48                     0                        NaN                      NaN                      NaN                      NaN                      3.104286521592738E-8     1.2771755243350147E-5    4.0164422129457634E-5    2.978234672662365E-5     0.0021742957659920937    0.019283427916308653     0.0283138720920292       0.008215839788419561     -1.3208437640178098E-5   -2.4019440652611583E-5   -6.7170453751335315E-6   -6.601032059986998E-6    -4.551435041621074E-7    -2.63815953976164E-8
1.625                     0.48                     0                        NaN                      NaN                      NaN                      NaN                      -1.5841354441847007E-8   6.355604732836883E-6     2.317267061061285E-5     2.040445943702369E-5     0.001101242301922315     0.009501292525910402     0.013288659515321398     0.003496993154272466     7.897375506074258E-6     1.4361257045470314E-5    4.016133064052305E-6     3.9467665348894185E-6    2.721313749277263E-7     1.577323175940722E-8
1.675                     0.48                     0                        NaN                      NaN                      NaN                      NaN                      -3.8034931087397406E-8   4.68543239820269E-6      1.4685203637846319E-5    1.2065771772971274E-5    2.974866292273933E-4     0.0023652329026441206    0.0027522730608211263    5.098936090740122E-4     2.3429663817175557E-6    4.260639398808458E-6     1.191489943209295E-6     1.1709116949978471E-6    8.073521233079826E-8     4.679540219922027E-9
1.725                     0.48                     0                        NaN                      NaN                      NaN                      NaN                      -5.055659232924132E-8    2.5909212296290074E-6    1.0904259308834666E-5    8.776927778303335E-6     1.0439039178949722E-4    6.925053011823006E-4     5.922684130676763E-4     5.429296122529107E-5     8.765742920296914E-8     1.593903908203422E-7     4.4574298586751067E-8    4.380440967533301E-8     3.019790855254371E-9     1.7521469282489462E-10
0.025                     0.62                     0                        NaN                      NaN                      NaN                      NaN                      0.0022594192141606813    0.022266719160070166     0.09644749011819152      0.059520081219136614     0.1926260132451656       0.9199992101563802       1.2911698018530715       0.37208005770938274      -1.4327992124845301E-5   -2.635778170578513E-5    -7.370843773539707E-6    -7.243576204324353E-6    -4.994536862631275E-7    -2.900027656500038E-8
0.07500000000000001       0.62                     0                        NaN                      NaN                      NaN                      NaN                      0.0027940355416735596    0.0264741844150027       0.10952061715223504      0.06649100710252182      0.1937905364351316       0.9124899564488004       1.278840121977812        0.3685431032466691       4.553366351467112E-5     8.409758443855071E-5     2.3517412065805623E-5    2.3111382115126415E-5    1.5935639286538125E-6    9.258364183510145E-8
0.125                     0.62                     0                        NaN                      NaN                      NaN                      NaN                      0.003915464524244788     0.03485411196091684      0.13380193025959866      0.07901561090703751      0.19458318571611322      0.8952165295716031       1.257777330404769        0.36370101471537647      8.599356646401055E-6     1.559910163886214E-5     4.3623127815251895E-6    4.286961759009295E-6     2.9558625058512874E-7    1.71253619632122E-8
0.17500000000000002       0.62                     0                        NaN                      NaN                      NaN                      NaN                      0.005635731153813116     0.04752976924776163      0.17000345405366193      0.09749956753406704      0.19488761685520872      0.8671791728025462       1.227659021032147        0.357672056012014        -1.6193480108835925E-4   -2.98412808091426E-4     -8.344970418690399E-5    -8.200887173804657E-5    -5.654620877335917E-6    -3.2841683348900856E-7
0.225                     0.62                     0                        NaN                      NaN                      NaN                      NaN                      0.010239719953723147     0.07656378569514416      0.23004069193083143      0.12434738544831994      0.19540318003307977      0.8232280237573188       1.1758819275759052       0.3453650632875267       5.852539182890735E-4     0.0010498200858326272    2.9358832040787624E-4    2.8851591893713573E-4    1.989298473383411E-5     1.1506527547620783E-6
0.275                     0.62                     0                        NaN                      NaN                      NaN                      NaN                      0.01620894029206752      0.11371767821135621      0.3033663451875641       0.15634788743170547      0.1960332156685095       0.7704400796311447       1.1122463416284671       0.32974573138594565      0.002343778263444783     0.004234136674814872     0.001184089068230872     0.0011636348324729833    8.023247524191197E-5     4.6458710013919094E-6
0.32500000000000007       0.62                     0                        NaN                      NaN                      NaN                      NaN                      0.029940605689489353     0.17991574060330578      0.39607847237553595      0.18835154016150962      0.19973724719636515      0.7203914426951122       1.0072055088735927       0.29458599190393286      -0.005290625000385247    -0.009526845512660769    -0.002664223359172506    -0.002618197251341267    -1.8052374232837987E-4   -1.0448052440788252E-5
0.37500000000000006       0.62                     0                        NaN                      NaN                      NaN                      NaN                      0.05347609475432673      0.2693112486115606       0.4963388140359796       0.2110367070112398       0.20342904019097852      0.6445015812147421       0.8690506734666358       0.24900168302350614      -0.0035046547874043685   -0.006247986449505779    -0.0017473015976985033   -0.0017171083336185596   -1.1839270142770806E-4   -6.841465974110944E-6
0.42500000000000004       0.62                     0                        NaN                      NaN                      NaN                      NaN                      0.09276453175120111      0.4004016363679694       0.618535443021316        0.22412548547088695      0.2078679179871822       0.5264905757305944       0.6737651925863175       0.18535218129792302      0.011894924221900515     0.021668444235184305     0.006059573508379567     0.005954920527704331     4.1059470112849616E-4    2.380598286265093E-5
0.47500000000000003       0.62                     5702801.402994069        1073.1500000000003       1073.1500000000003       1073.1500000000003       1073.1500000000003       0.13095249563266242      0.5289320065351747       0.7283136107771123       0.22962840345498445      0.21017529375281         0.40727028575246743      0.48401917803077604      0.12463992334786779      0.027097165031045888     0.04925506015523992      0.013774204251718747     0.013536301660275918     9.333324981410677E-4     5.409604718890766E-5
0.525                     0.62                     4773029.581668979        1073.1499999999999       1073.1499999999999       1073.1499999999999       1073.1499999999999       0.14663958215380846      0.58395750305401         0.7637092334480255       0.2229426924852818       0.20740877136541735      0.34573836600126606      0.3948832616505397       0.0977452122194375       0.03206485937844756      0.0583044471415883       0.016304862447402275     0.016023253650441244     0.0011048090604794665    6.403812760359684E-5
0.5750000000000001        0.62                     4030406.1474279077       1073.15                  1073.15                  1073.15                  1073.15                  0.15499571177125882      0.6129728033408702       0.7783886772912956       0.21491792660349163      0.20335600793771383      0.2958579120225543       0.324467006938902        0.07692556158326486      0.03521212166708802      0.06403921760482167      0.017908588562282203     0.017599282499837672     0.0012134770562665462    7.03388780020707E-5
0.6250000000000001        0.62                     4350863.769950998        1073.1500000000005       1073.1500000000005       1073.1500000000005       1073.1500000000005       0.13459211523853515      0.5407608884406925       0.7160336401614606       0.2066401195621161       0.1976992830947079       0.3132064342744335       0.3581460290766892       0.08899807227232423      0.02968229017986587      0.0539814235504601       0.015095923440489784     0.014835195889492076     0.001022892241767423     5.929153521311652E-5
0.675                     0.62                     4671321.392474088        1073.15                  1073.15                  1073.15                  1073.15                  0.11418851870581152      0.468548973540515        0.653678603031626        0.19836231252074063      0.19204255825170194      0.3305549565263126       0.3918250512144764       0.10107058296138359      0.024152458692643725     0.04392362949609855      0.012283258318697376     0.012071109279146487     8.323074272683004E-4     4.824419242416237E-5
0.7250000000000001        0.62                     4986281.550526316        1073.15                  1073.15                  1073.15                  1073.15                  0.09400459144860421      0.3969142064869323       0.5919725862683196       0.19021202018784023      0.1864626013771645       0.3476836373126908       0.42494935047108096      0.11291599808044511      0.018832819469092148     0.034247893954851456     0.00957743607185227      0.009412020194622466     6.489622268960303E-4     3.761645641868816E-5
0.775                     0.62                     0                        NaN                      NaN                      NaN                      NaN                      0.07614656164044234      0.3297015111609939       0.5187998376121236       0.174804925762029        0.17468306674207248      0.3683903731315646       0.4644303216569039       0.12636353478206144      0.014493326938199684     0.026355699470731863     0.0073703812884116275    0.007243084285131465     4.994132897055593E-4     2.8947876304674053E-5
0.8250000000000001        0.62                     0                        NaN                      NaN                      NaN                      NaN                      0.04973804057629228      0.22457456798733308      0.3827320884224561       0.13972597800434539      0.14700009975998762      0.4073405355524946       0.5380879051152717       0.15070729788004422      0.00861494182956586      0.015666023349814352     0.004381009334054059     0.004305343050061015     2.968549658475409E-4     1.7206832078766705E-5
0.8750000000000001        0.62                     0                        NaN                      NaN                      NaN                      NaN                      0.023329519512142207     0.11944762481367219      0.24666433923278858      0.10464703024666178      0.11931713277790273      0.4462906979734246       0.6117454885736393       0.175051060978027        0.002736556720932034     0.004976347228896836     0.0013916373796964898    0.0013676018149905637    9.429664198952229E-5     5.465787852859354E-6
0.925                     0.62                     0                        NaN                      NaN                      NaN                      NaN                      0.002170761469038298     0.03521891889639092      0.13764556549758541      0.07654144393955527      0.09713727655398438      0.4774979382578051       0.6707606444261579       0.1945555153167477       -0.0019732612918083627   -0.0035883228657372025   -0.0010034758388531506   -9.861443806071341E-4    -6.799501204583529E-5    -3.9412483588957025E-6
0.9750000000000001        0.62                     0                        NaN                      NaN                      NaN                      NaN                      0.0021707614690382976    0.035218918896390915     0.13764556549758541      0.07654144393955525      0.09713727655398435      0.477497938257805        0.6707606444261578       0.19455551531674767      -0.0019732612918083627   -0.003588322865737202    -0.0010034758388531503   -9.861443806071341E-4    -6.799501204583528E-5    -3.941248358895702E-6