% Model:              ss.mph
% Version:            COMSOL 5.3.1.180
% Date:               Apr 3 2018, 16:32
% Dimension:          2
% Nodes:              1330
% Expressions:        19
% Description:        , , , , , , , , , , , , , , , , , , 
% Length unit:        m
% cpl1x                   cpl1y                    PdensityN (W/m^3)        Tp22 (K)                 Tp23 (K)                 Tp24 (K)                 Tp3 (K)                  Flux1 (1/(m^2*s))        Flux2 (1/(m^2*s))        Flux3 (1/(m^2*s))        Flux4 (1/(m^2*s))        Flux5 (1/(m^2*s))        Flux6 (1/(m^2*s))        Flux7 (1/(m^2*s))        Flux8 (1/(m^2*s))        Conc1 (1/(m^2*s))        Conc2 (1/(m^2*s))        Conc3 (1/(m^2*s))        Conc4 (1/(m^2*s))        Conc5 (1/(m^2*s))        Conc6 (1/(m^2*s))
0.025                     0.48                     0                        NaN                      NaN                      NaN                      NaN                      7.431374206432355E-4     0.007094759843343452     0.030265605754089056     0.01867369587035348      0.06016304268240861      0.28946099899685795      0.40713571881740074      0.11739429620401731      -1.02823393077976E-5     -1.8977019968022493E-5   -5.378127536735929E-6    -5.289770209139629E-6    -3.618964591793818E-7    -2.1233894810745106E-8
0.07500000000000001       0.48                     0                        NaN                      NaN                      NaN                      NaN                      9.83198176605065E-4      0.008953096637452196     0.03598722621986035      0.02172937127295986      0.060738342480827        0.28630659924876595      0.40158502971001         0.11573464807564691      6.041279311666597E-6     1.1156769213166522E-5    3.1614976711281475E-6    3.109958761788616E-6     2.128484518082558E-7     1.2418916821756352E-8
0.125                     0.48                     0                        NaN                      NaN                      NaN                      NaN                      0.0011358534154970153    0.01002902894613585      0.038950178145892814     0.02322968533367121      0.06086865230289813      0.28427545996192605      0.3989039200577107       0.11507318182712856      1.4351694624042136E-5    2.648742442541953E-5     7.5061606509210285E-6    7.383389440708077E-6     5.05300099310772E-7      2.9613841259048628E-8
0.17500000000000002       0.48                     0                        NaN                      NaN                      NaN                      NaN                      0.001973556115232034     0.01586008127094867      0.05472400773483579      0.031119901623280023     0.061073701753991017     0.27200509771325687      0.3855471402490246       0.1123518771434295       -1.5654676882932706E-5   -2.8825229270685935E-5   -8.169022870577788E-6    -8.034798570817276E-6    -5.497654214916124E-7    -3.21857321930436E-8
0.225                     0.48                     0                        NaN                      NaN                      NaN                      NaN                      0.003087166750511119     0.023492461131649066     0.07159103285056255      0.0388825231495098       0.06108160296690856      0.25887791870589233      0.3716687215051291       0.10945160471367113      3.3052601064866173E-4    6.085466377032955E-4     1.7245821678186485E-4    1.6963063074948328E-4    1.1607124053355463E-5    6.792668250957416E-7
0.275                     0.48                     0                        NaN                      NaN                      NaN                      NaN                      0.005264999336238805     0.03598190562758484      0.09456321779642543      0.048508054509972406     0.061453055795407295     0.2426211734121702       0.35039367299776336      0.10389930346111191      5.342968610074808E-4     9.839279886262305E-4     2.788389773086423E-4     2.7426705075206913E-4    1.8766909102148293E-5    1.0984171721966137E-6
0.32500000000000007       0.48                     0                        NaN                      NaN                      NaN                      NaN                      0.010157197058355034     0.058983187394827476     0.12701472014814674      0.059745862396150436     0.0631106093471417       0.22446199750353948      0.3132461597581141       0.09141400846742338      -5.480509459568415E-4    -0.001007755026721425    -2.8559144813567703E-4   -2.809081741454615E-4    -1.9221684961300364E-5   -1.1240751218702665E-6
0.37500000000000006       0.48                     0                        NaN                      NaN                      NaN                      NaN                      0.011977905705483195     0.06742455189117119      0.13868343661520371      0.06371998131846847      0.06372416284781629      0.21802204729557872      0.29967406329472407      0.08680248588229406      -0.0011384271763509898   -0.002094397012950418    -5.935389685745833E-4    -5.83806270379085E-4     -3.994780841863389E-5    -2.336799677451186E-6
0.42500000000000004       0.48                     0                        NaN                      NaN                      NaN                      NaN                      0.02349867154006816      0.10605450528073537      0.17556008333683013      0.06819287696052878      0.06548916289003495      0.18364177988622488      0.24009670668975713      0.06720165040267545      0.0026421951510353313    0.004871063485775354     0.0013804296014304216    0.0013577990270214892    9.290669870621214E-5     5.440897786107195E-6
0.47500000000000003       0.48                     2042113.9265875835       882.9834779500989        882.8942388360633        880.2184702989074        880.043785603664         0.03625971883914658      0.1488432112958839       0.21640672841257672      0.07314730739264678      0.06744417606754553      0.14556026474521896      0.1741054803680013       0.045490664149834964     0.0068298247784772705    0.012586398747365992     0.003566908056977953     0.003508430104157914     2.4006381253509408E-4    1.4055912329015525E-5
0.525                     0.48                     2042113.9265875828       880.818351050775         880.7291119507839        878.0533438347323        877.8786591669801        0.03625971883914656      0.14884321129588382      0.2164067284125766       0.07314730739264674      0.06744417606754549      0.14556026474521888      0.17410548036800122      0.04549066414983494      0.006829824778477266     0.012586398747365984     0.0035669080569779507    0.003508430104157912     2.4006381253509394E-4    1.4055912329015516E-5
0.5750000000000001        0.48                     1276475.5782875046       877.6945389093066        877.6387577030118        875.966199673029         875.8570085058229        0.049561649756559786     0.19625034537983338      0.24779359455970648      0.06842068253669731      0.06614025267861837      0.09633371860957168      0.10050570019894581      0.023239148732364902     0.01069587518941326      0.019713152029479503     0.00558658624375776      0.0054949978985271205    3.759938925608733E-4     2.201599156914003E-5
0.6250000000000001        0.48                     1553303.9734130162       878.9376215968122        878.8697431746165        876.8344591130598        876.701587763729         0.03027396193252363      0.1268045971174101       0.18709122887936108      0.05977336854641641      0.059497024023345724     0.10964316930550924      0.13049161477457144      0.034151841229113564     0.005964130929218448     0.010992185863915377     0.003115117946210138     0.003064047680147952     2.0965676002274346E-4    1.2276226216593598E-5
0.675                     0.48                     1615093.8205138117       879.1843710160776        879.1137924134913        876.9975454489248        876.8593885228183        0.026321243533745025     0.11257703072707644      0.17474340980810066      0.058095317722250774     0.058187393019933066     0.11272319437897647      0.1371025144607137       0.03651782943957235      0.004989127037109032     0.00919516752379565      0.002605853975187291     0.0025631327454423225    1.753817893527029E-4     1.0269270175396113E-5
0.7250000000000001        0.48                     1615093.8205138128       879.1178640791863        879.0472854775762        876.9310385422888        876.7928816180936        0.026321243533745046     0.11257703072707652      0.1747434098081008       0.058095317722250815     0.05818739301993311      0.11272319437897656      0.1371025144607138       0.03651782943957238      0.004989127037109036     0.009195167523795657     0.0026058539751872933    0.0025631327454423247    1.7538178935270303E-4    1.026927017539612E-5
0.775                     0.48                     0                        NaN                      NaN                      NaN                      NaN                      0.02632124353374504      0.11257703072707649      0.17474340980810074      0.0580953177222508       0.058187393019933094     0.11272319437897653      0.13710251446071378      0.036517829439572366     0.004989127037109036     0.009195167523795655     0.002605853975187293     0.0025631327454423243    1.7538178935270297E-4    1.0269270175396118E-5
0.8250000000000001        0.48                     0                        NaN                      NaN                      NaN                      NaN                      0.026321243533745042     0.11257703072707652      0.17474340980810077      0.05809531772225081      0.0581873930199331       0.11272319437897654      0.13710251446071378      0.03651782943957237      0.004989127037109037     0.009195167523795657     0.002605853975187293     0.0025631327454423247    1.75381789352703E-4      1.026927017539612E-5
0.8750000000000001        0.48                     0                        NaN                      NaN                      NaN                      NaN                      9.323200616126828E-4     0.011773642890272131     0.043695670379854806     0.02404358227679438      0.03031107602862802      0.1483697213326782       0.20859716883095064      0.06049569310342447      -5.436953545858159E-4    -0.001002052412663229    -2.8397561905943425E-4   -2.793199537386427E-4    -1.911238085331498E-5    -1.1191025079019407E-6
0.925                     0.48                     0                        NaN                      NaN                      NaN                      NaN                      6.77186941300954E-4      0.01076067032745251      0.04237877253238107      0.023701396617533774     0.03003094710765991      0.14872793304102247      0.20931561812932714      0.060736646493263255     -5.992946493914083E-4    -0.0011045242068592049   -3.1301549711328785E-4   -3.0788374169430537E-4   -2.10668514547002E-5     -1.233544187997275E-6
0.9750000000000001        0.48                     0                        NaN                      NaN                      NaN                      NaN                      6.771869413009539E-4     0.010760670327452508     0.042378772532381065     0.02370139661753377      0.030030947107659908     0.14872793304102244      0.2093156181293271       0.06073664649326325      -5.992946493914082E-4    -0.0011045242068592046   -3.130154971132878E-4    -3.078837416943053E-4    -2.1066851454700197E-5   -1.2335441879972748E-6
1.025                     0.48                     0                        NaN                      NaN                      NaN                      NaN                      6.771869413009538E-4     0.010760670327452506     0.04237877253238105      0.023701396617533763     0.030030947107659897     0.14872793304102241      0.20931561812932703      0.060736646493263234     -5.99294649391408E-4     -0.0011045242068592044   -3.1301549711328775E-4   -3.0788374169430526E-4   -2.1066851454700194E-5   -1.2335441879972744E-6
1.075                     0.48                     0                        NaN                      NaN                      NaN                      NaN                      6.771869413009537E-4     0.010760670327452504     0.042378772532381044     0.02370139661753376      0.030030947107659894     0.1487279330410224       0.209315618129327        0.06073664649326323      -5.992946493914079E-4    -0.0011045242068592042   -3.130154971132877E-4    -3.078837416943052E-4    -2.106685145470019E-5    -1.2335441879972744E-6
1.125                     0.48                     0                        NaN                      NaN                      NaN                      NaN                      5.087053417309858E-4     0.00807431283456417      0.03232520453541602      0.018437733902450026     0.025561428094867465     0.1387730998325233       0.19658586350542887      0.05700044621663442      -3.563267757728462E-4    -6.567243788816291E-4    -1.8611173659386943E-4   -1.8306050805518578E-4   -1.2525860139045163E-5   -7.334358770085755E-7
1.175                     0.48                     0                        NaN                      NaN                      NaN                      NaN                      2.7519682955948155E-5    -5.366710396420328E-4    -0.0015555840952568712   -3.627235389417325E-5    0.009325053865020888     0.09102625456422528      0.1336612623473069       0.03878021327487727      2.2004018123198175E-4    4.055431892030675E-4     1.1492846269903169E-4    1.1304427327062925E-4    7.735016907747146E-6     4.5292219202388084E-7
1.225                     0.48                     0                        NaN                      NaN                      NaN                      NaN                      3.9650101059728126E-5    -1.0563027219832354E-4   -0.0010884056002637159   -7.398698543388216E-4    0.006851510110209132     0.06267827380406277      0.09281771600753161      0.027136810966026093     -5.861906337955323E-5    -1.0803704006007067E-4   -3.0617073003255264E-5   -3.0115112377545555E-5   -2.0606089803167532E-6   -1.2064765950387639E-7
1.275                     0.48                     0                        NaN                      NaN                      NaN                      NaN                      -2.8570311267061455E-8   5.0859678250913334E-5    -5.074111981916989E-5    -2.4869829983994025E-4   0.005880974273528529     0.0516628730672814       0.07622222530515949      0.02227768514158709      2.2363034430482122E-6    4.123014918779619E-6     1.168388200650224E-6     1.1492621261860713E-6    7.86570286113265E-8      4.614530371526711E-9
1.325                     0.48                     0                        NaN                      NaN                      NaN                      NaN                      7.067187623846143E-6     4.94041007632919E-5      -1.3686117302797406E-4   -2.900856073525814E-4    0.005593571752284216     0.04993879926751573      0.07362783295139182      0.021502225119450033     4.252170280487556E-5     7.837089420381867E-5     2.2209780832365092E-5    2.1845698948594977E-5    1.4948050800076384E-6    8.753680343477948E-8
1.375                     0.48                     0                        NaN                      NaN                      NaN                      NaN                      7.067187623846141E-6     4.940410076329189E-5     -1.36861173027974E-4     -2.9008560735258135E-4   0.005593571752284215     0.04993879926751572      0.0736278329513918       0.02150222511945003      4.252170280487555E-5     7.837089420381865E-5     2.2209780832365085E-5    2.1845698948594974E-5    1.494805080007638E-6     8.753680343477946E-8
1.425                     0.48                     0                        NaN                      NaN                      NaN                      NaN                      3.848245467393029E-6     2.976429412668031E-5     -5.575225586305184E-5    -1.2838815011558793E-4   0.0042547669027010555    0.03836033912739048      0.05650843400644735      0.01649712748807315      4.7715611556754544E-5    8.794197555983442E-5     2.4922150546064255E-5    2.4513633822127955E-5    1.6773290486872005E-6    9.823726315261643E-8
1.475                     0.48                     0                        NaN                      NaN                      NaN                      NaN                      1.4000259325323833E-7    1.2235763642552385E-5    4.1839988228824555E-5    4.1411064798222845E-5    0.0026113001942163977    0.02375132398230699      0.03496489974218034      0.010211658936837346     2.2940122374209257E-5    4.2278719207456E-5       1.198143931883698E-5     1.1785095099352865E-5    8.063729062790722E-7     4.7261899878067944E-8
1.525                     0.48                     0                        NaN                      NaN                      NaN                      NaN                      1.400025932532383E-7     1.2235763642552385E-5    4.1839988228824555E-5    4.1411064798222845E-5    0.0026113001942163977    0.02375132398230699      0.03496489974218034      0.010211658936837346     2.294012237420925E-5     4.227871920745598E-5     1.1981439318836976E-5    1.1785095099352861E-5    8.063729062790722E-7     4.726189987806793E-8
1.575                     0.48                     0                        NaN                      NaN                      NaN                      NaN                      1.4725447311553486E-8    1.2406964545672421E-5    3.99485723581497E-5      3.0358723670934144E-5    0.002139401434447377     0.019072668877378195     0.028005089548753866     0.008130358712039903     -1.2775878687608184E-5   -2.3546908018936592E-5   -6.673102074541841E-6    -6.5637067829618785E-6   -4.4913025932204747E-7   -2.628195354298509E-8
1.625                     0.48                     0                        NaN                      NaN                      NaN                      NaN                      -2.278743986957635E-8    6.190477380225504E-6     2.2933117413369743E-5    2.061277768930701E-5     0.0010803667185776116    0.009396751703869012     0.013140059261672197     0.0034605674312947364    7.639565288184668E-6     1.407916454863525E-5     3.989671707993891E-6     3.924545740265706E-6     2.684910895740438E-7     1.5786033067252355E-8
1.675                     0.48                     0                        NaN                      NaN                      NaN                      NaN                      -3.931576459132596E-8    4.576947310242704E-6     1.4463380730894708E-5    1.2109858018225875E-5    2.8939511026383063E-4    0.0023396207904486047    0.0027186596396945205    5.047177074634064E-4     2.265211480034394E-6     4.176629922141589E-6     1.1835584648121058E-6    1.1640951796753044E-6    7.960480205627095E-8     4.680271532410047E-9
1.725                     0.48                     0                        NaN                      NaN                      NaN                      NaN                      -4.883290159563984E-8    2.5660217279809304E-6    1.0700637441928171E-5    8.731482411310343E-6     1.0128393916293567E-4    6.849505697794615E-4     5.840194767315274E-4     5.370036360502939E-5     8.410927041940115E-8     1.5673059612905017E-7    4.4326478225262784E-8    4.360394708023004E-8     3.045384272769332E-9     1.5988716469498924E-10
0.025                     0.62                     0                        NaN                      NaN                      NaN                      NaN                      0.0022565293112598085    0.02192788240134606      0.0952618142985913       0.059080582356095035     0.19195945563469777      0.9238256032847698       1.298247624948121        0.37409263658360203      -1.408210331080554E-5    -2.5989123208060526E-5   -7.365245957679826E-6    -7.244279423965915E-6    -4.956336010442234E-7    -2.9049454551950693E-8
0.07500000000000001       0.62                     0                        NaN                      NaN                      NaN                      NaN                      0.002789468914536173     0.026099644184659716     0.10825913600505652      0.06602909316261739      0.19315014889252335      0.9163812390558824       1.2859635046660236       0.370563060142633        4.509274518625235E-5     8.324709581223103E-5     2.3591512473836948E-5    2.3205213494698556E-5    1.587809008537289E-6     9.310851258764713E-8
0.125                     0.62                     0                        NaN                      NaN                      NaN                      NaN                      0.0039073492364615145    0.03441954292911         0.13241619738780178      0.07850755302883038      0.19406484354094136      0.8992171847264179       1.2649342949245124       0.3657444879852506       8.254353184389482E-6     1.5204849321964204E-5    4.308822670442963E-6     4.238503880035907E-6     2.90071384899464E-7      1.7050824261395567E-8
0.17500000000000002       0.62                     0                        NaN                      NaN                      NaN                      NaN                      0.005622110693214288     0.0470120112337672       0.16844294920867542      0.09691875316085766      0.19460127789747056      0.8713316498449564       1.2348240186356436       0.3597553292716311       -1.6038848641827417E-4   -2.9603923687534166E-4   -8.389559683892496E-5    -8.252039239668423E-5    -5.6462902164106235E-6   -3.308151797392076E-7
0.225                     0.62                     0                        NaN                      NaN                      NaN                      NaN                      0.010209337061992917     0.0758269218350847       0.2282123010008949       0.1237011528362893       0.19542211697660244      0.8276325098900225       1.1832019247038623       0.34755774277432167      5.656467744790509E-4     0.0010409053691049688    2.9498620193673644E-4    2.901491394502818E-4     1.9853873801876068E-5    1.161579561963654E-6
0.275                     0.62                     0                        NaN                      NaN                      NaN                      NaN                      0.016158587198250737     0.11271135116425737      0.30123974492110384      0.155642388670584        0.19639233728993563      0.7751256817636157       1.1197964569519083       0.3320868925712002       0.002282743051598854     0.004204074359728898     0.0011914084816139158    0.0011718745418040476    8.018607361792626E-5     4.693287660406608E-6
0.32500000000000007       0.62                     0                        NaN                      NaN                      NaN                      NaN                      0.029853119770048328     0.17833687898860842      0.39373944720163206      0.18786408536101865      0.19999374820083116      0.7252992471261486       1.0157820903237353       0.2971140185516997       -0.005132605668316188    -0.009449163887057598    -0.002677834421101221    -0.0026339273346907364   -1.8022857779913446E-4   -1.0546864984740839E-5
0.37500000000000006       0.62                     0                        NaN                      NaN                      NaN                      NaN                      0.05328014186673003      0.2671056762107899       0.49386064427163484      0.21086068580571296      0.2044802495454241       0.6508180755641108       0.8771673306853579       0.25105386985702         -0.0033637394577969854   -0.006185605203708956    -0.0017529616455579304   -0.001724215482555783    -1.1798267372371699E-4   -6.900054319740119E-6
0.42500000000000004       0.62                     0                        NaN                      NaN                      NaN                      NaN                      0.09240048509139503      0.39766589818108655      0.6161614842791993       0.2243996264598969       0.21103486119450027      0.5358982414413382       0.6791701847869116       0.18594682696481304      0.011669995860328148     0.02151249975631828      0.006096510624403935     0.005996564358365572     4.1031237595563395E-4    2.40278511952773E-5
0.47500000000000003       0.62                     5783558.289643227        900.860445035261         900.607707108076         893.0295481245546        892.5348160974146        0.13075205252405608      0.5275443153104009       0.7273333781995073       0.23029303359811099      0.2153239137693321       0.4181874076937835       0.4846710146201592       0.12336169689153821      0.026384776177392738     0.04862597917879493      0.01378030381619263      0.013554383218486045     9.274560352763223E-4     5.430473228377374E-5
0.525                     0.62                     4806198.266093738        889.2517406379834        889.0417127369307        882.7441821570067        882.3330545894066        0.14689720644060697      0.5854011744784071       0.7648653269915048       0.22373352049114936      0.21314479401648992      0.35506467574233014      0.39089169575943206      0.09513581620111788      0.031010628168031205     0.05715336996304463      0.016196914077979067     0.015931375817460257     0.001090100773446225     6.38292307451147E-5
0.5750000000000001        0.62                     4023187.3844601316       888.2672675070779        888.0914567081513        882.819900515038         882.4757525910802        0.15554457051266965      0.6162688672143762       0.7807022077248091       0.21564951002896082      0.2092283251991072       0.3034528837941631       0.3167093634844942       0.0732776833035424       0.033890338261423        0.06246207893791779      0.017701369674346906     0.017411167617070435     0.001191354877089515     6.975880105109361E-5
0.6250000000000001        0.62                     4352128.614101978        888.6603541542361        888.4701688476874        882.7676037225858        882.3953178401737        0.1346559576640567       0.5413027092709928       0.7154996386761328       0.2067549250812088       0.20229861950285966      0.31974172745629775      0.3518780813151712       0.08589676290338767      0.028584561586291        0.0526830938058596       0.014930065279829508     0.014685296901605813     0.0010048378947970064    5.8837398809823184E-5
0.675                     0.62                     4681069.843743824        890.0948272874026        889.8902674710921        883.7566933498367        883.3562695047816        0.11376734481544376      0.4663365513276093       0.6502970696274566       0.19786034013345685      0.19536891380661214      0.3360305711184324       0.38704679914584816      0.09851584250323292      0.023278784911159006     0.04290410867380143      0.012158760885312116     0.0119594261861412       8.183209125044977E-4     4.791599656855277E-5
0.7250000000000001        0.62                     5004212.876843742        892.731974655637         892.5132937015197        885.9563077539544        885.5282419193869        0.09310421302476762      0.3919730131172323       0.5857507154321989       0.18908673735245465      0.18852223649764352      0.35213229606610896      0.4216185363066997       0.11089057302828406      0.01817347062935393      0.033494564921140946     0.009492153922422074     0.00933653643172153      6.388503809840303E-4     3.740717846784915E-5
0.775                     0.62                     0                        NaN                      NaN                      NaN                      NaN                      0.07515061831353394      0.324105128229364        0.5118390651513399       0.17344550597604666      0.1758668803774753       0.371588023938647        0.461649414694034        0.12466271323726982      0.01399637949427218      0.025795906634849857     0.007310401391348213     0.00719055228518377      4.920119531586574E-4     2.880916938968573E-5
0.8250000000000001        0.62                     0                        NaN                      NaN                      NaN                      NaN                      0.04909327242286846      0.22064785692372466      0.37734118940565325      0.13849727945302703      0.14725665455212394      0.40817302856293025      0.5350263320061714       0.14927184989066172      0.008317892693905957     0.015330221183509123     0.0043444903165828185    0.004273265412358615     2.9239727188479534E-4    1.712097132700591E-5
0.8750000000000001        0.62                     0                        NaN                      NaN                      NaN                      NaN                      0.023035926532202974     0.11719058561808524      0.24284331365996656      0.10354905293000737      0.11864642872677253      0.44475803318721346      0.6084032493183089       0.17388098654405357      0.002639405893539732     0.004864535732168378     0.0013785792418174222    0.0013559785395334594    9.278259061093323E-5     5.432773264326085E-6
0.925                     0.62                     0                        NaN                      NaN                      NaN                      NaN                      0.0021585333753967903    0.034299636668754865     0.13508233744696463      0.07554820171838889      0.09572364390566594      0.474070286568259        0.66719353278723         0.19359806069727659      -0.0019102516949351133   -0.003520670909363714    -9.977368970486048E-4    -9.813794266505982E-4    -6.715058901185687E-5    -3.931922099241313E-6
0.9750000000000001        0.62                     0                        NaN                      NaN                      NaN                      NaN                      0.0021585333753967903    0.03429963666875486      0.1350823374469646       0.07554820171838887      0.09572364390566593      0.4740702865682589       0.6671935327872299       0.19359806069727656      -0.0019102516949351129   -0.0035206709093637137   -9.977368970486046E-4    -9.81379426650598E-4     -6.715058901185686E-5    -3.931922099241312E-6