% Model:              eigen_1st.mph
% Version:            COMSOL 5.3.1.180
% Date:               Mar 20 2018, 14:30
% Dimension:          2
% Nodes:              1330
% Expressions:        19
% Description:        , , , , , , , , , , , , , , , , , , 
% Length unit:        m
% cpl1x                   cpl1y                    PdensityN (W/m^3) @ lambda=1 Tp221 (K) @ lambda=1     Tp231 (K) @ lambda=1     Tp241 (K) @ lambda=1     Tp31 (K) @ lambda=1      Flux1 (1/(m^2*s)) @ lambda=1 Flux2 (1/(m^2*s)) @ lambda=1 Flux3 (1/(m^2*s)) @ lambda=1 Flux4 (1/(m^2*s)) @ lambda=1 Flux5 (1/(m^2*s)) @ lambda=1 Flux6 (1/(m^2*s)) @ lambda=1 Flux7 (1/(m^2*s)) @ lambda=1 Flux8 (1/(m^2*s)) @ lambda=1 Conc1 (1/(m^2*s)) @ lambda=1 Conc2 (1/(m^2*s)) @ lambda=1 Conc3 (1/(m^2*s)) @ lambda=1 Conc4 (1/(m^2*s)) @ lambda=1 Conc5 (1/(m^2*s)) @ lambda=1 Conc6 (1/(m^2*s)) @ lambda=1
0.025                     0.48                     0                        NaN                      NaN                      NaN                      NaN                      7.346229422364345E-4     0.007013970097274608     0.029927121553503844     0.01846592020823231      0.05953869622482445      0.2864928224189407       0.4029668457915216       0.1161928638187746       -1.0139912902183866E-5   -1.871327593479128E-5    -5.303230076575137E-6    -5.21629935258602E-6     -3.569171932113125E-7    -2.091393905097228E-8
0.07500000000000001       0.48                     0                        NaN                      NaN                      NaN                      NaN                      9.717938022001434E-4     0.008850141458764475     0.03558135473806051      0.021485422699164064     0.06010347912253473      0.28335737577014164      0.39745572860632133      0.1145454525096624       5.954137998775626E-6     1.099533367642977E-5     3.1160092988711018E-6    3.064938383624537E-6     2.0971247969183484E-7    1.2291890640775911E-8
0.125                     0.48                     0                        NaN                      NaN                      NaN                      NaN                      0.0011226746021966304    0.009913614449309695     0.038510281420002776     0.022968276227384905     0.0602305936019913       0.2813416249542551       0.39479490355913144      0.11388871015195619      1.4163252229094552E-5    2.6138394838501066E-5    7.407460959923803E-6     7.286041743551054E-6     4.985373773404061E-7     2.921208405004685E-8
0.17500000000000002       0.48                     0                        NaN                      NaN                      NaN                      NaN                      0.0019507846624642515    0.015678562815143852     0.05410863019092541      0.030769784105042525     0.060426022518265565     0.269172067889127        0.3815406918826418       0.11118513711130143      -1.5421655727130408E-5   -2.8397054677680196E-5   -8.047550407072991E-6    -7.915599642994335E-6    -5.416296434075151E-7    -3.169919901850638E-8
0.225                     0.48                     0                        NaN                      NaN                      NaN                      NaN                      0.0030517279430353522    0.023224769937648514     0.07078825644247115      0.03844435678316371      0.06042643966027757      0.25616072664834566      0.3677753987611851       0.10830682763606808      3.2605664800346406E-4    6.003166686916908E-4     1.7012602128487397E-4    1.6733657384139996E-4    1.1450127719451206E-5    6.700798327654858E-7
0.275                     0.48                     0                        NaN                      NaN                      NaN                      NaN                      0.005204558821607131     0.03557207461118925      0.09350324989394627      0.047957088736550954     0.06078487664569167      0.24004481684009762      0.3466881187054264       0.10280271905211144      5.270826125987023E-4     9.706412412661938E-4     2.75073721125274E-4      2.705636266137965E-4     1.851346015102761E-5     1.0835610808061892E-6
0.32500000000000007       0.48                     0                        NaN                      NaN                      NaN                      NaN                      0.01004019618588125      0.05830916149625072      0.12558670958679538      0.05905303087141507      0.062414923573283584     0.22202938850823828      0.30990891563940903      0.09043901443343313      -5.405472067881778E-4    -9.93955805739447E-4     -2.816808404742636E-4    -2.770615951338575E-4    -1.8958475368791413E-5   -1.1087234404922832E-6
0.37500000000000006       0.48                     0                        NaN                      NaN                      NaN                      NaN                      0.011839878772491144     0.0666537355237504       0.13712354290226314      0.06297691109375592      0.06301882228531544      0.21564067443540036      0.2964738207075021       0.08587293838304522      -0.0011229588325669315   -0.002065936497025947    -5.854735034328498E-4    -5.758729840284501E-4    -3.940494821147541E-5    -2.3050916296765313E-6
0.42500000000000004       0.48                     0                        NaN                      NaN                      NaN                      NaN                      0.023225752015506168     0.10483374623842188      0.17357583005180763      0.06732655885737673      0.0648191204777368       0.18185515400497076      0.23730102784780532      0.06635814979848276      0.0026078681715602627    0.004807779368141885     0.001362495226550022     0.0013401587558710501    9.169969448264372E-5     5.370182965341967E-6
0.47500000000000003       0.48                     2021929.1905048315       1073.15                  1073.15                  1073.15                  1073.15                  0.035837384703955866     0.14712407047595083      0.21395243063147593      0.07214447301715146      0.06681323186892295      0.14443241402162435      0.17175791905252383      0.044742473919407034     0.006740341702219551     0.012421493120791258     0.003520174799015067     0.0034624631243873566    2.3691856018739086E-4    1.387174818650286E-5
0.525                     0.48                     2021929.1905048303       1073.15                  1073.15                  1073.15                  1073.15                  0.035837384703955845     0.14712407047595075      0.2139524306314758       0.07214447301715142      0.0668132318689229       0.14443241402162427      0.17175791905252372      0.04474247391940701      0.006740341702219548     0.01242149312079125      0.003520174799015065     0.003462463124387355     2.3691856018739072E-4    1.3871748186502851E-5
0.5750000000000001        0.48                     1261131.582890938        1073.15                  1073.15                  1073.15                  1073.15                  0.04896782410030123      0.19394859721083405      0.24497046680731832      0.06734979317595724      0.06554055617408963      0.09603337355120287      0.09869780605863585      0.022635392884248276     0.010541243276457866     0.01942815588394791      0.005505820080062361     0.005415555835368547     3.705580994951931E-4     2.16977133955554E-5
0.6250000000000001        0.48                     1537660.7237241557       1073.1499999999996       1073.1499999999996       1073.1499999999996       1073.1499999999996       0.029923719760342693     0.12535040965566394      0.18499056146824502      0.058942608430651314     0.0589418731584366       0.1088906207076178       0.1286709850467201       0.033556367619758054     0.005884135461852632     0.010844751256080582     0.0030733359095511245    0.003022950580474542     2.0684468115930114E-4    1.2111571799083075E-5
0.675                     0.48                     1599348.4565876904       1073.15                  1073.15                  1073.15                  1073.15                  0.026020950913818248     0.11129652104357673      0.17278966063271106      0.05731290989397414      0.05764082572225433      0.11187343543828634      0.13527460249912998      0.03592273172312812      0.004924547528342896     0.009076146020594231     0.002572124044177056     0.002529955734704222     1.7311163470673424E-4    1.0136346497999068E-5
0.7250000000000001        0.48                     1599348.4565876916       1073.1499999999999       1073.1499999999999       1073.1499999999999       1073.1499999999999       0.02602095091381827      0.11129652104357682      0.17278966063271117      0.05731290989397418      0.057640825722254374     0.11187343543828643      0.13527460249913006      0.03592273172312814      0.004924547528342899     0.009076146020594237     0.002572124044177058     0.0025299557347042236    1.7311163470673437E-4    1.0136346497999075E-5
0.775                     0.48                     0                        NaN                      NaN                      NaN                      NaN                      0.02602095091381826      0.11129652104357679      0.17278966063271112      0.057312909893974175     0.05764082572225436      0.1118734354382864       0.13527460249913004      0.035922731723128126     0.0049245475283428986    0.009076146020594235     0.0025721240441770577    0.002529955734704223     1.7311163470673432E-4    1.0136346497999075E-5
0.8250000000000001        0.48                     0                        NaN                      NaN                      NaN                      NaN                      0.026020950913818265     0.11129652104357682      0.17278966063271117      0.05731290989397418      0.05764082572225437      0.1118734354382864       0.13527460249913004      0.03592273172312813      0.004924547528342899     0.009076146020594237     0.002572124044177058     0.0025299557347042236    1.7311163470673434E-4    1.0136346497999075E-5
0.8750000000000001        0.48                     0                        NaN                      NaN                      NaN                      NaN                      9.232482966902266E-4     0.011646965710848313     0.04322503587375445      0.023783308536850633     0.02998771606050071      0.1468192145723789       0.20648757749028673      0.0598906626984496       -5.353393412557729E-4    -9.866527907388923E-4    -2.7961134247288575E-4   -2.750272947239616E-4    -1.881867915589335E-5    -1.1019055177359575E-6
0.925                     0.48                     0                        NaN                      NaN                      NaN                      NaN                      6.710416527814365E-4     0.010645588003060863     0.04192304183556477      0.023446369799513426     0.029709830148478108     0.14717038447062175      0.20720319619448724      0.06013151627476849      -5.902057074929517E-4    -0.0010877737879573261   -3.0826841209216144E-4   -3.0321455022161816E-4   -2.0747385582218562E-5   -1.2148386362579452E-6
0.9750000000000001        0.48                     0                        NaN                      NaN                      NaN                      NaN                      6.710416527814364E-4     0.010645588003060862     0.041923041835564764     0.023446369799513422     0.0297098301484781       0.14717038447062175      0.2072031961944872       0.060131516274768475     -5.902057074929516E-4    -0.001087773787957326    -3.082684120921614E-4    -3.032145502216181E-4    -2.0747385582218562E-5   -1.214838636257945E-6
1.025                     0.48                     0                        NaN                      NaN                      NaN                      NaN                      6.710416527814363E-4     0.01064558800306086      0.04192304183556475      0.023446369799513415     0.029709830148478094     0.1471703844706217       0.20720319619448715      0.06013151627476846      -5.902057074929515E-4    -0.0010877737879573257   -3.0826841209216134E-4   -3.03214550221618E-4     -2.0747385582218555E-5   -1.2148386362579448E-6
1.075                     0.48                     0                        NaN                      NaN                      NaN                      NaN                      6.710416527814362E-4     0.010645588003060858     0.04192304183556475      0.023446369799513412     0.02970983014847809      0.1471703844706217       0.20720319619448713      0.060131516274768454     -5.902057074929514E-4    -0.0010877737879573255   -3.082684120921613E-4    -3.03214550221618E-4     -2.074738558221855E-5    -1.2148386362579446E-6
1.125                     0.48                     0                        NaN                      NaN                      NaN                      NaN                      5.040488767838901E-4     0.00798791079531979      0.03197840102731043      0.0182396819807532       0.02529185426390773      0.13734885647401984      0.1946220099591375       0.05643627837449586      -3.503063892178931E-4    -6.45629209079203E-4     -1.829673535103657E-4    -1.7996772154794022E-4   -1.2314249839322818E-5   -7.210462834304837E-7
1.175                     0.48                     0                        NaN                      NaN                      NaN                      NaN                      2.7234762935862744E-5    -5.307547979490412E-4    -0.0015376338641234198   -3.602477490950956E-5    0.009238628358598884     0.09017813875904382      0.13239362632321916      0.038410316098768355     2.1808295232197576E-4    4.019361001261451E-4     1.1390622259628788E-4    1.1203880377728365E-4    7.666229147016868E-6     4.488870516545715E-7
1.225                     0.48                     0                        NaN                      NaN                      NaN                      NaN                      3.936550493149623E-5     -1.0421065948394898E-4   -0.0010774045739865312   -7.326582135201432E-4    0.0067872842868101305    0.06209120542060923      0.09195055823561674      0.026883256836256725     -5.8008302119568516E-5   -1.0691183063169177E-4   -3.029815624181807E-5    -2.9801437435454095E-5   -2.0391567681520684E-6   -1.1940047715638164E-7
1.275                     0.48                     0                        NaN                      NaN                      NaN                      NaN                      -3.6620998099654207E-9   5.04337265910354E-5      -5.012262449613661E-5    -2.458448601343745E-4    0.00582603669449707      0.051179778074070086     0.07551369812925672      0.022071082655090196     2.1633151380673812E-6    3.9872350385052475E-6    1.1299576589757833E-6    1.1114332986138604E-6    7.604892354716984E-8     4.453039732782459E-9
1.325                     0.48                     0                        NaN                      NaN                      NaN                      NaN                      7.020967285025961E-6     4.903933377133126E-5     -1.351993898718851E-4    -2.8679853905720876E-4   0.005541524797078267     0.04947299572651325      0.072943255627567        0.021302671646323955     4.203522961568356E-5     7.747289327424954E-5     2.1955341876326645E-5    2.159539890639753E-5     1.4776594569362778E-6    8.652273171124742E-8
1.375                     0.48                     0                        NaN                      NaN                      NaN                      NaN                      7.020967285025959E-6     4.903933377133125E-5     -1.3519938987188504E-4   -2.867985390572087E-4    0.005541524797078266     0.049472995726513244     0.07294325562756698      0.02130267164632395      4.2035229615683556E-5    7.747289327424951E-5     2.1955341876326642E-5    2.1595398906397527E-5    1.4776594569362773E-6    8.65227317112474E-8
1.425                     0.48                     0                        NaN                      NaN                      NaN                      NaN                      3.822763592580979E-6     2.9537345208702585E-5    -5.504276423127125E-5    -1.2692447608986409E-4   0.004215399398403394     0.03800475614090343      0.05598450537356784      0.016344315379047913     4.718185349031455E-5     8.695822354577971E-5     2.4643425742044898E-5    2.4239413274398637E-5    1.6585758266695201E-6    9.711607097310124E-8
1.475                     0.48                     0                        NaN                      NaN                      NaN                      NaN                      1.3843615739558146E-7    1.2118700164757857E-5    4.143679940014799E-5     4.099362108908452E-5     0.002587435108093397     0.02353405350884531      0.03464343738527777      0.010117697612996442     2.2678219572710402E-5    4.179686187188509E-5     1.1844972368154906E-5    1.165078270091842E-5     7.972018642195533E-7     4.667944198216251E-8
1.525                     0.48                     0                        NaN                      NaN                      NaN                      NaN                      1.3843615739558143E-7    1.2118700164757859E-5    4.143679940014799E-5     4.099362108908452E-5     0.0025874351080933966    0.02353405350884531      0.03464343738527776      0.010117697612996442     2.2678219572710395E-5    4.1796861871885076E-5    1.1844972368154903E-5    1.1650782700918416E-5    7.972018642195532E-7     4.667944198216251E-8
1.575                     0.48                     0                        NaN                      NaN                      NaN                      NaN                      1.4117854336785644E-8    1.2286224703853932E-5    3.957025488070912E-5     3.007856846549149E-5     0.0021198249663677356    0.01889796206341973      0.02774819453392071      0.008055727427445817     -1.2646694095255808E-5   -2.3308422996602637E-5   -6.605466253196039E-6    -6.497171988435622E-6    -4.4456787679540024E-7   -2.6030905926651857E-8
1.625                     0.48                     0                        NaN                      NaN                      NaN                      NaN                      -2.2853462556363256E-8   6.128804387290469E-6     2.2710168749387644E-5    2.041545323650727E-5     0.001070466926810515     0.009310599314012858     0.013019511354181796     0.0034288075983857766    7.557025953438403E-6     1.3927916280648524E-5    3.9470835039246456E-6    3.88237611663963E-6      2.656502804906615E-7     1.555536088130203E-8
1.675                     0.48                     0                        NaN                      NaN                      NaN                      NaN                      -3.92340375689678E-8     4.5297221210051365E-6    1.4319587386664652E-5    1.1993912933197221E-5    2.867398115687384E-4     0.0023181491253268377    0.0026937041471481907    5.000806303213429E-4     2.242114730856359E-6     4.132327746922509E-6     1.1710757680028143E-6    1.1518762871946545E-6    7.881650268703209E-8     4.615153865660972E-9
1.725                     0.48                     0                        NaN                      NaN                      NaN                      NaN                      -4.855233928720385E-8    2.539238619457579E-6     1.059359117057272E-5     8.647985154590062E-6     1.0035250220960859E-4    6.786482485687352E-4     5.78641555509903E-4      5.3203481893060814E-5    8.457652987485687E-8     1.5589100492668583E-7    4.417787913033438E-8     4.3453641108398196E-8    2.973771239364824E-9     1.7398704041803137E-10
0.025                     0.62                     0                        NaN                      NaN                      NaN                      NaN                      0.002231905746066047     0.021689469400300913     0.09423847570108257      0.058447965063566004     0.1900019868029772       0.9144823803381087       1.2851305090348963       0.3703142292158906       -1.3987307230098475E-5   -2.5812065625678167E-5   -7.314983410696781E-6    -7.195075375776697E-6    -4.923124470881209E-7    -2.8846382724383835E-8
0.07500000000000001       0.62                     0                        NaN                      NaN                      NaN                      NaN                      0.002758834270533459     0.025814428050822884     0.10709062886995244      0.06531821329551717      0.19116967326937778      0.9070726012989639       1.2729154001645377       0.3668046811741632       4.462346737285133E-5     8.238389252547941E-5     2.3347095678359697E-5    2.296441604055861E-5     1.5712983021402105E-6    9.208980766598015E-8
0.125                     0.62                     0                        NaN                      NaN                      NaN                      NaN                      0.0038642445985612403    0.03404221420957188      0.1309834135919986       0.07765913090251982      0.19206338170051987      0.8900439574462213       1.252047436383791        0.36201998202507496      8.339011478819003E-6     1.5364578163910313E-5    4.354225812753759E-6     4.282840977200537E-6     2.9305398956376254E-7    1.715719794619897E-8
0.17500000000000002       0.62                     0                        NaN                      NaN                      NaN                      NaN                      0.005559916798569431     0.04649552494019426      0.16661739578351875      0.09586808019325946      0.192579323609436        0.862393319720257        1.2221774172303983       0.3560724283234537       -1.5825199432422898E-4   -2.9209281838642697E-4   -8.277733437409113E-5    -8.142048982559772E-5    -5.571066240263321E-6    -3.2646127916454235E-7
0.225                     0.62                     0                        NaN                      NaN                      NaN                      NaN                      0.010095137094299673     0.07498515246451048      0.22571735561846767      0.12234151930039944      0.19336147595461595      0.819059516203941        1.1709729019894741       0.34396994204046183      5.583510941441379E-4     0.0010274828506351293    2.911822412598418E-4     2.86407620490103E-4      1.9597788316646934E-5    1.1465833377757072E-6
0.275                     0.62                     0                        NaN                      NaN                      NaN                      NaN                      0.01597748743909254      0.11145670872836472      0.29793429015450057      0.1539169387847394       0.19428733433878673      0.767001365270572        1.1081086779063738       0.3286310501729155       0.002253176705319709     0.0041496248287056035    0.001175978019320382     0.00115669691734126      7.91475215716861E-5      4.632556729613427E-6
0.32500000000000007       0.62                     0                        NaN                      NaN                      NaN                      NaN                      0.029517158794517325     0.17634461083165895      0.38940477102184096      0.1857456061040261       0.19781364759247572      0.7174985223979834       1.0051832383819974       0.2940207349348857       -0.005066155272368901    -0.009326827263463181    -0.0026431649810458643   -0.0025998262955076504   -1.7789520541653523E-4   -1.0410299271772066E-5
0.37500000000000006       0.62                     0                        NaN                      NaN                      NaN                      NaN                      0.0526717973131983       0.2640879732398617       0.4883813709769708       0.20835887129452735      0.20230626436566326      0.6440166411911387       0.867689776326896        0.2482663921479351       -0.003321138037937446    -0.006107269399092122    -0.0017307618590275738   -0.0017023795398967197   -1.1648851247619119E-4   -6.812664997670471E-6
0.42500000000000004       0.62                     0                        NaN                      NaN                      NaN                      NaN                      0.09133874123826774      0.39313959817866995      0.6092762344631066       0.22149578214508495      0.2089643923594622       0.5310737691418699       0.6709842096621685       0.18343451920498258      0.011516748506262869     0.02123000225749404      0.0060164525028613665    0.005917818954829277     4.049243045972565E-4     2.37123402204608E-5
0.47500000000000003       0.62                     5724715.219824758        1073.1500000000003       1073.1500000000003       1073.1500000000003       1073.1500000000003       0.12924025645951356      0.521516021495351        0.7191877512598772       0.22706359569218554      0.21334440286355658      0.4153709487390949       0.4777931187298221       0.12115388208688276      0.026030797678158257     0.04797360930366225      0.013595426141466666     0.013372536685802459     9.150133078006143E-4     5.357618865266569E-5
0.525                     0.62                     4753239.181930592        1073.1499999999999       1073.1499999999999       1073.1499999999999       1073.1499999999999       0.1451674936111761       0.5786279712936991       0.7562400825526276       0.2204069255588536       0.2112045186765043       0.35330642437248055      0.38467229049365137      0.09309931264088221      0.03057576389953759      0.05635190204440032      0.01596978295126795      0.015707968410951744     0.0010748142304046198    6.293417432350407E-5
0.5750000000000001        0.62                     3975182.080758628        1073.15                  1073.15                  1073.15                  1073.15                  0.15369265016710992      0.6090838886956146       0.7718590285464171       0.21229980019145334      0.2073323419286653       0.3025006299760395       0.3110503037283853       0.0713885704527483       0.033403169238115094     0.061564195714788175     0.01744691504024478      0.017160884577721143     0.0011742293514219954    6.875606500196139E-5
0.6250000000000001        0.62                     4303422.03165566         1073.1500000000005       1073.1500000000005       1073.1500000000005       1073.1500000000005       0.13306282827506533      0.5350138133584217       0.7074098063587555       0.2036506981503543       0.2004471295387429       0.3182785026816382       0.3461633033303151       0.08400254386349623      0.028179783459055346     0.05193706439339535      0.014718645131413643     0.014477342771031427     9.906086806692796E-4     5.8004246267493474E-5
0.675                     0.62                     4631661.982552691        1073.15                  1073.15                  1073.15                  1073.15                  0.11243300638302078      0.46094373802122884      0.6429605841710939       0.1950015961092553       0.19356191714882062      0.33405637538723704      0.38127630293224485      0.09661651727424414      0.022956397679995612     0.042309933072002544     0.011990375222582518     0.011793800964341716     8.069880099165646E-4     4.7252427533025585E-5
0.7250000000000001        0.62                     4954262.33706362         1073.15                  1073.15                  1073.15                  1073.15                  0.09203070577659062      0.3874869207200327       0.5791809908512933       0.18648020765195977      0.18676006348040006      0.34965007679078963      0.4158090260873614       0.1089928236626188       0.017931722142010494     0.03304901430117341      0.009365887700497334     0.009212340088985423     6.30352208180644E-4      3.690958842496402E-5
0.775                     0.62                     0                        NaN                      NaN                      NaN                      NaN                      0.07429378252206538      0.3204210835006937       0.5061225313885384       0.17113149449556803      0.17420160840494262      0.3686379583180797       0.45572588611989867      0.12276241672671917      0.013815663944495193     0.025462843525689945     0.007216013483534785     0.00709771161166436      4.8565927169650497E-4    2.8437202743612608E-5
0.8250000000000001        0.62                     0                        NaN                      NaN                      NaN                      NaN                      0.04853532455225847      0.2181480220215009       0.373146816752818        0.13671914845428412      0.1458204663608645       0.40450376630774676      0.5288137081886314       0.1473613591904696       0.008212032863358754     0.01513511814801121      0.0042891995349185075    0.004218880884734045     2.886759462431065E-4     1.69030776239751E-5
0.8750000000000001        0.62                     0                        NaN                      NaN                      NaN                      NaN                      0.022776866582451562     0.11587496054230806      0.2401711021170977       0.10230680241300019      0.1174393243167863       0.4403695742974137       0.601901530257364        0.17196030165422005      0.002608401782222315     0.004807392770332469     0.0013623855863022284    0.0013400501578037314    9.169262078970796E-5     5.368952504337586E-6
0.925                     0.62                     0                        NaN                      NaN                      NaN                      NaN                      0.002138945268240828     0.033932811759756494     0.13362969585086268      0.07473530373594903      0.09470008359827393      0.46910560050010675      0.6604601878699279       0.1916692081258245       -0.001881280692633783    -0.003467278949113976    -9.826055635437643E-4    -9.664963788314075E-4    -6.613229154332165E-5    -3.872298153072199E-6
0.9750000000000001        0.62                     0                        NaN                      NaN                      NaN                      NaN                      0.0021389452682408277    0.03393281175975649      0.13362969585086265      0.07473530373594901      0.09470008359827392      0.46910560050010663      0.6604601878699278       0.19166920812582447      -0.0018812806926337827   -0.0034672789491139756   -9.82605563543764E-4     -9.664963788314074E-4    -6.613229154332164E-5    -3.872298153072198E-6