% Model:              smaller_outlet.mph
% Version:            COMSOL 5.3.1.180
% Date:               Mar 19 2018, 10:15
% Dimension:          2
% Nodes:              1330
% Expressions:        19
% Description:        , , , , , , , , , , , , , , , , , , 
% Length unit:        m
% cpl1x                   cpl1y                    PdensityN (W/m^3)        Tp22 (K)                 Tp23 (K)                 Tp24 (K)                 Tp3 (K)                  Flux1 (1/(m^2*s))        Flux2 (1/(m^2*s))        Flux3 (1/(m^2*s))        Flux4 (1/(m^2*s))        Flux5 (1/(m^2*s))        Flux6 (1/(m^2*s))        Flux7 (1/(m^2*s))        Flux8 (1/(m^2*s))        Conc1 (1/(m^2*s))        Conc2 (1/(m^2*s))        Conc3 (1/(m^2*s))        Conc4 (1/(m^2*s))        Conc5 (1/(m^2*s))        Conc6 (1/(m^2*s))
0.025                     0.48                     0                        NaN                      NaN                      NaN                      NaN                      7.374388874056813E-4     0.0070406388471058266    0.03003944367790427      0.018535407706526424     0.05976696310930795      0.28759431356536824      0.40451664201009097      0.11663978287886527      -1.0206418581523155E-5   -1.8836018332603245E-5   -5.338016053342436E-6    -5.25051315075187E-6     -3.5925774811442455E-7   -2.1051360045723292E-8
0.07500000000000001       0.48                     0                        NaN                      NaN                      NaN                      NaN                      9.75551698776806E-4      0.008884081302216263     0.03571599746584239      0.021567145728036308     0.06033577991230589      0.2844552849089696       0.3989962399395982       0.11498944398923609      5.993685040794406E-6     1.1068368208555305E-5    3.1367042339465326E-6    3.0852968935959656E-6    2.1110601769378867E-7    1.2373016590941561E-8
0.125                     0.48                     0                        NaN                      NaN                      NaN                      NaN                      0.0011270346401074673    0.00995178046492075      0.0386564937514026       0.023056134706443174     0.06046415376008556      0.28243484447835765      0.39632944101862155      0.11433141259687839      1.4259241000978705E-5    2.631555458551335E-5     7.457664830869133E-6     7.335425337472732E-6     5.019173836271794E-7     2.941019151183294E-8
0.17500000000000002       0.48                     0                        NaN                      NaN                      NaN                      NaN                      0.001958465425307967     0.015739747774905607     0.05431674847814123      0.03089025004584121      0.060664452600692184     0.2702342464289092       0.38304599181362115      0.11162385147896768      -1.5535311384851002E-5   -2.860636969294807E-5    -8.106870293641284E-6    -7.973944145303688E-6    -5.456216794953776E-7    -3.19329663389408E-8
0.225                     0.48                     0                        NaN                      NaN                      NaN                      NaN                      0.0030638319224720774    0.02331617338678007      0.0710628077417376       0.03859798898712432      0.06066947612728817      0.2571845108116058       0.3692470691618902       0.10873930037926803      3.282731058194344E-4     6.043974766199695E-4     1.7128249597286687E-4    1.684740884506939E-4     1.1527962493203109E-5    6.746351280436492E-7
0.275                     0.48                     0                        NaN                      NaN                      NaN                      NaN                      0.005225362726632644     0.03571318898238805      0.09386888528792058      0.048155101727343205     0.06103497090352871      0.2410245151183638       0.34809852497131827      0.10321973138728488      5.306644987433286E-4     9.772373942726132E-4     2.769430292783099E-4     2.724022867491932E-4     1.863927040832005E-5     1.0909253443193005E-6
0.32500000000000007       0.48                     0                        NaN                      NaN                      NaN                      NaN                      0.010080573370858102     0.05854204531403933      0.12608179120169594      0.05931184423079771      0.06267756000687662      0.22297629231413857      0.3111845699812014       0.09081366450123084      -5.442390314650662E-4    -0.0010007446359879845   -2.836047522855378E-4    -2.78953957071105E-4     -1.9087964369850213E-5   -1.1162956899147623E-6
0.37500000000000006       0.48                     0                        NaN                      NaN                      NaN                      NaN                      0.011887526346298484     0.06692020360860426      0.13766493753710868      0.06325743439903284      0.0632857851368261       0.21657623562229875      0.29769869932131443      0.08623168510959663      -0.0011305917347133726   -0.0020799793115260524   -5.894531487307473E-4    -5.79787372556925E-4     -3.967279599678935E-5    -2.3207597818878553E-6
0.42500000000000004       0.48                     0                        NaN                      NaN                      NaN                      NaN                      0.023320302757607176     0.10525749432573046      0.17426914238660293      0.06770008206743786      0.06503425660151539      0.18241082539651887      0.23851697146095402      0.06676301010593792      0.0026247659931532613    0.004838932031533343     0.0013713237010049965    0.001348842497435683     9.229387484254959E-5     5.404980310588684E-6
0.47500000000000003       0.48                     2029740.8694625334       881.7456545847604        881.6569561655712        878.9973999616869        878.8237736713307        0.03598388802956268      0.14772203072756696      0.21481401554315205      0.072621008145066        0.06697096179823135      0.14456729813943506      0.17296396575710565      0.04519841221902796      0.006784411131187807     0.012502706833887186     0.0035431902662728986    0.0034851012624136793    2.3846757133651946E-4    1.3962443951115095E-5
0.525                     0.48                     2029740.869462532        879.6372927476314        879.5485943428016        876.8890385694707        876.7154123072224        0.035983888029562656     0.14772203072756687      0.2148140155431519       0.07262100814506595      0.06697096179823131      0.14456729813943497      0.17296396575710554      0.045198412219027935     0.006784411131187803     0.012502706833887179     0.0035431902662728964    0.003485101262413677     2.3846757133651932E-4    1.3962443951115087E-5
0.5750000000000001        0.48                     1268542.4476720353       877.7917838610446        877.7363493271989        876.0741860130562        875.9656734537878        0.04918168034708838      0.19476281041495735      0.24596421767144344      0.06792476990402001      0.06567684185341975      0.09567540742960606      0.09983217491383592      0.023084742717481517     0.010623983654909224     0.019580651283033608     0.005549036339801723     0.005458063593381743     3.73466682508566E-4      2.186802297242413E-5
0.6250000000000001        0.48                     1543770.1016044032       879.1183830963334        879.0509212982681        877.0281294017445        876.8960735900854        0.030041019150964746     0.12583966912998776      0.18570879093012024      0.05933921912085834      0.0590833960232996       0.10890191026131785      0.1296230055090505       0.03392598657482472      0.005923778225085001     0.01091781481395911      0.003094041672096018     0.0030433168860955206    2.0823824046582425E-4    1.2193169948501268E-5
0.675                     0.48                     1605202.5416011706       879.361773028816         879.2916266688137        877.1883401770141        877.05102936155          0.026118455741897702     0.11171925531678008      0.173451935304399        0.0576731834165375       0.057783578810044166     0.11196249461793667      0.13619099105026689      0.03627655296889993      0.004955279337374753     0.00913278600802192      0.002588175467473583     0.002545744005854154     1.7419194309390275E-4    1.019960236016049E-5
0.7250000000000001        0.48                     1605202.5416011717       879.2939747008611        879.2238283418337        877.1205418792657        876.9832310657101        0.026118455741897723     0.11171925531678016      0.17345193530439912      0.05767318341653754      0.05778357881004421      0.11196249461793675      0.136190991050267        0.03627655296889996      0.004955279337374757     0.009132786008021927     0.002588175467473585     0.0025457440058541557    1.7419194309390288E-4    1.0199602360160498E-5
0.775                     0.48                     0                        NaN                      NaN                      NaN                      NaN                      0.026118455741897712     0.11171925531678013      0.1734519353043991       0.05767318341653753      0.0577835788100442       0.11196249461793673      0.13619099105026697      0.03627655296889994      0.0049552793373747565    0.009132786008021926     0.0025881754674735844    0.0025457440058541557    1.7419194309390283E-4    1.0199602360160496E-5
0.8250000000000001        0.48                     0                        NaN                      NaN                      NaN                      NaN                      0.02611845574189772      0.11171925531678016      0.17345193530439912      0.05767318341653754      0.0577835788100442       0.11196249461793674      0.13619099105026697      0.03627655296889995      0.004955279337374757     0.009132786008021927     0.002588175467473585     0.002545744005854156     1.7419194309390288E-4    1.0199602360160496E-5
0.8750000000000001        0.48                     0                        NaN                      NaN                      NaN                      NaN                      9.258684020363239E-4     0.011686943667982709     0.043380084047863865     0.023872473931219437     0.030105177652876732     0.14739720722790534      0.20723395078221268      0.06010036577130969      -5.386899674957291E-4    -9.928281254887599E-4    -2.8136139525965063E-4   -2.767486555964533E-4    -1.8936463226384354E-5   -1.1088022007215887E-6
0.925                     0.48                     0                        NaN                      NaN                      NaN                      NaN                      6.727082621903215E-4     0.010681719644562977     0.04207299289402948      0.023532810830135018     0.029827037586787713     0.1477532904153415       0.2079478610042229       0.060339771105083394     -5.938988278945161E-4    -0.0010945803534550488   -3.101973517917279E-4    -3.05111865267917E-4     -2.087720927571604E-5    -1.2224402816954435E-6
0.9750000000000001        0.48                     0                        NaN                      NaN                      NaN                      NaN                      6.727082621903214E-4     0.010681719644562977     0.04207299289402947      0.023532810830135014     0.02982703758678771      0.1477532904153415       0.20794786100422288      0.06033977110508339      -5.93898827894516E-4     -0.0010945803534550486   -3.101973517917279E-4    -3.05111865267917E-4     -2.0877209275716036E-5   -1.2224402816954433E-6
1.025                     0.48                     0                        NaN                      NaN                      NaN                      NaN                      6.727082621903212E-4     0.010681719644562973     0.04207299289402946      0.02353281083013501      0.029827037586787702     0.14775329041534144      0.20794786100422283      0.06033977110508337      -5.938988278945158E-4    -0.0010945803534550484   -3.101973517917278E-4    -3.051118652679169E-4    -2.087720927571603E-5    -1.222440281695443E-6
1.075                     0.48                     0                        NaN                      NaN                      NaN                      NaN                      6.72708262190321E-4      0.010681719644562972     0.04207299289402945      0.023532810830135007     0.0298270375867877       0.1477532904153414       0.2079478610042228       0.060339771105083366     -5.938988278945158E-4    -0.0010945803534550482   -3.1019735179172776E-4   -3.0511186526791683E-4   -2.0877209275716026E-5   -1.2224402816954427E-6
1.125                     0.48                     0                        NaN                      NaN                      NaN                      NaN                      5.078323566143408E-4     0.008053152774789452     0.03222668825990372      0.018372224706475367     0.02543092068442907      0.137822425927134        0.19521945842424732      0.05660582888052697      -3.5722738092797406E-4   -6.583848807006544E-4    -1.8658223316533296E-4   -1.8352333689218385E-4   -1.2557542237031302E-5   -7.35291972988085E-7
1.175                     0.48                     0                        NaN                      NaN                      NaN                      NaN                      4.943996439193452E-5     -5.193273572226132E-4    -0.0017638609304365183   -1.7440393998068363E-4   0.008950510103571044     0.08876684188829272      0.13036208549703782      0.037808809784894856     2.435447299927176E-4     4.488632534996506E-4     1.272050897619413E-4     1.25119644633208E-4      8.561282660415785E-6     5.012958849326244E-7
1.225                     0.48                     0                        NaN                      NaN                      NaN                      NaN                      5.811535662638634E-5     -4.5983788467216515E-5   -0.0010224784057659062   -6.842088117895434E-4    0.005395094375016264     0.05078612900834479      0.0751831432096122       0.02196793777881835      -1.7118284818711138E-6   -3.1549756282279564E-6   -8.941009745401647E-7    -8.794420196761555E-7    -6.017608115745763E-8    -3.5235297685125077E-9
1.275                     0.48                     0                        NaN                      NaN                      NaN                      NaN                      1.7168870772199205E-5    2.191911581420874E-5     -2.787885655423295E-4    -2.826165985035231E-4    0.004322826817742395     0.03947287506758734      0.058260811295034666     0.017025906991772966     3.313749644358952E-5     6.107389824248014E-5     1.7307967086165657E-5    1.7024215400307574E-5    1.1648773451383598E-6    6.820810145729609E-8
1.325                     0.48                     0                        NaN                      NaN                      NaN                      NaN                      1.7168870772199205E-5    2.1919115814208736E-5    -2.7878856554232947E-4   -2.82616598503523E-4     0.004322826817742394     0.039472875067587336     0.05826081129503466      0.017025906991772963     3.313749644358952E-5     6.107389824248013E-5     1.7307967086165654E-5    1.702421540030757E-5     1.1648773451383596E-6    6.820810145729607E-8
1.375                     0.48                     0                        NaN                      NaN                      NaN                      NaN                      1.71688707721992E-5      2.1919115814208733E-5    -2.787885655423294E-4    -2.8261659850352297E-4   0.004322826817742394     0.03947287506758733      0.058260811295034645     0.01702590699177296      3.3137496443589516E-5    6.107389824248011E-5     1.730796708616565E-5     1.702421540030757E-5     1.1648773451383596E-6    6.820810145729606E-8
1.425                     0.48                     0                        NaN                      NaN                      NaN                      NaN                      1.211845919850272E-5     1.772382039061143E-5     -1.894345074354913E-4    -1.889012507726552E-4    0.003925429715099702     0.0359011417456932       0.05293137211537151      0.015455420152175145     4.08431568618397E-5      7.52757197044336E-5      2.1332675646969577E-5    2.098294120372048E-5     1.4357524063144921E-6    8.406888054578728E-8
1.475                     0.48                     0                        NaN                      NaN                      NaN                      NaN                      -1.1393817085757849E-7   1.4538727271003503E-5    4.890828495120857E-5     3.9539339463996405E-5    0.0025878762835950773    0.0234786377682179       0.0345433013193339       0.010077609693596548     2.1775262281450303E-5    4.0132673400373605E-5    1.1373349860732806E-5    1.1186893140567727E-5    7.654600747264728E-7     4.482110096732315E-8
1.525                     0.48                     0                        NaN                      NaN                      NaN                      NaN                      -1.1393817085757849E-7   1.4538727271003503E-5    4.890828495120857E-5     3.953933946399641E-5     0.0025878762835950773    0.0234786377682179       0.034543301319333905     0.010077609693596548     2.1775262281450303E-5    4.0132673400373605E-5    1.1373349860732806E-5    1.1186893140567727E-5    7.654600747264727E-7     4.482110096732315E-8
1.575                     0.48                     0                        NaN                      NaN                      NaN                      NaN                      -9.363174391691189E-8    1.211604714374901E-5     4.149585027759176E-5     3.42834452552505E-5      0.002154319280151424     0.019442154538679226     0.028400873677127146     0.00817528779092591      1.944926830919397E-5     3.5845780645091375E-5    1.015847019002675E-5     9.991931642454077E-6     6.836950055552192E-7     4.003365145438035E-8
1.625                     0.48                     0                        NaN                      NaN                      NaN                      NaN                      -4.32690332776231E-8     6.10746973242093E-6      2.3112000489996415E-5    2.124811018821903E-5     0.0010790387310981675    0.00943112514962982      0.013166814683335885     0.003457269805441873     1.368048575991748E-5     2.5213701451308077E-5    7.145402775651046E-6     7.028264014937273E-6     4.809064730819584E-7     2.8160123175622185E-8
1.675                     0.48                     0                        NaN                      NaN                      NaN                      NaN                      -3.928202276848842E-8    4.542752383448906E-6     1.4356206219603788E-5    1.2023826727819619E-5    2.876171481331726E-4     0.002325255979398558     0.0027019650256578974    5.016160590462621E-4     2.2535575385968633E-6    4.153434563313332E-6     1.1770565867466828E-6    1.1577584703541988E-6    7.921852222202519E-8     4.638880428968842E-9
1.725                     0.48                     0                        NaN                      NaN                      NaN                      NaN                      -4.8638663623308125E-8   2.5466503173752942E-6    1.0621321167415153E-5    8.669939418920801E-6     1.0066082849969378E-4    6.80738392269104E-4      5.804232875523957E-4     5.3367560182396135E-5    8.50157258001749E-8      1.5671718569840876E-7    4.4411132382786E-8       4.368310996843161E-8     2.9900790979154463E-9    1.7476055142394597E-10
0.025                     0.62                     0                        NaN                      NaN                      NaN                      NaN                      0.0022401590450586975    0.021769164481776324     0.09458103298337675      0.05866094303904085      0.19071555723339567      0.9179332571332297       1.2899827514547662       0.37171268031131255      -1.4074075517439163E-5   -2.5972210142944835E-5   -7.360368229320942E-6    -7.2397139381539345E-6   -4.953663240078733E-7    -2.902540784459903E-8
0.07500000000000001       0.62                     0                        NaN                      NaN                      NaN                      NaN                      0.002769146217885241     0.025910249891927        0.10748358517808135      0.06555891213911277      0.1918927190181064       0.9105187869398064       1.2777541699429382       0.36819929282584996      4.4914167360177736E-5    8.292053831349301E-5     2.34991757686933E-5      2.3114007222149693E-5    1.5815341523314817E-6    9.269019355884161E-8
0.125                     0.62                     0                        NaN                      NaN                      NaN                      NaN                      0.003878803574719817     0.03416955591048051      0.13146750373659888      0.07794865158252073      0.1927953690784053       0.8934496027147361       1.256840554013202        0.36340626743934695      8.387034377897193E-6     1.5453025070755153E-5    4.3792897532095815E-6    4.307497196961831E-6     2.947415988612412E-7     1.7256672279707612E-8
0.17500000000000002       0.62                     0                        NaN                      NaN                      NaN                      NaN                      0.005580963465992248     0.04667034649061509      0.1672366031723236       0.09622947628740569      0.19332069814837435      0.8657254615650917       1.2269012231691725       0.3574492446322734       -1.5930565852193538E-4   -2.940375634013817E-4    -8.332846205753015E-5    -8.196258337216007E-5    -5.608157797321516E-6    -3.286342405308818E-7
0.225                     0.62                     0                        NaN                      NaN                      NaN                      NaN                      0.010134047900042908     0.07527210959533297      0.22656953820471157      0.1228182361628705       0.1941236135894579       0.8222787147457571       1.175574217636363        0.34531943397989073      5.620017183948036E-4     0.001034200733099205     2.9308604911815043E-4    2.882802096269392E-4     1.972592263931982E-5     1.1540802825481323E-6
0.275                     0.62                     0                        NaN                      NaN                      NaN                      NaN                      0.01603934188976874      0.11188554108048371      0.29906729286053396      0.154530318100072        0.19507485443422423      0.7700834749385838       1.112543199708594        0.32993838492665095      0.002267919564849027     0.004176776348149077     0.001183672593685152     0.0011642653316266626    7.966539338771756E-5     4.662868025633238E-6
0.32500000000000007       0.62                     0                        NaN                      NaN                      NaN                      NaN                      0.029632369249012372     0.17702783207405665      0.39089651076469834      0.18652302748555094      0.19864406319881897      0.720572505322654        1.0091758564568578       0.2951848345853464       -0.00509945705623755     -0.009388136337131842    -0.002660539590871796    -0.0026169160240518095   -1.79064583787278E-4     -1.0478730596212796E-5
0.37500000000000006       0.62                     0                        NaN                      NaN                      NaN                      NaN                      0.05288153877849685      0.26512839925780207      0.4902789089844927       0.20935555683864454      0.20308721167460567      0.6465508289881899       0.8714503397309752       0.2494242444387542       -0.003343002433860806    -0.006147476658136047    -0.001742156343322678    -0.0017135871713495807   -1.1725541545914463E-4   -6.857516680561505E-6
0.42500000000000004       0.62                     0                        NaN                      NaN                      NaN                      NaN                      0.09170589350390136      0.3947063739201329       0.6116771114808389       0.22280430656880987      0.20957587909101177      0.5323149570462073       0.6747639054886743       0.1847579751345674       0.011592521692940705     0.021369682408211462     0.006056037001941736     0.005956754504173927     4.0758845298863013E-4    2.3868352233796268E-5
0.47500000000000003       0.62                     5748982.660371916        897.3183208248741        897.0670938305566        889.5342390465706        889.0424646557803        0.12976859749057013      0.5236135729209529       0.7220375589677425       0.22866434834736407      0.21381977848680925      0.41531782221382363      0.48155041837732143      0.12259362985392962      0.02621164037872658      0.04830689545615517      0.013689877390102547     0.013465439457587595     9.21370161366892E-4      5.394839809312351E-5
0.525                     0.62                     4777077.100913236        887.8290191943282        887.6202638691985        881.3608905329179        880.9522540202743        0.14578261838301784      0.5810059409081378       0.759265685663322        0.22213708629696177      0.21165481857512233      0.35262934728720785      0.38834428609111127      0.09453302906922798      0.030804761129322768     0.05677395041141517      0.016089388866841605     0.01582561346279988      0.0010828640660511283    6.340552121629595E-5
0.5750000000000001        0.62                     3998302.4259433947       888.7536469789186        888.5789236367468        883.339974026544         882.9979547885766        0.1543562909324846       0.6116143153755784       0.774960681188934        0.21409479931139397      0.2077672829088226       0.3013824598748265       0.31459757080297746      0.07279420866790628      0.03366299108236898      0.062043063464619116     0.01758262321967998      0.017294367912938223     0.001183362916116848     6.929087351647474E-5
0.6250000000000001        0.62                     4325274.473503064        889.1869530337138        888.9979412365733        883.3305629192573        882.960574170065         0.1336247555723381       0.5372038003888172       0.7102272271493636       0.20525951269269244      0.20088749428387118      0.31756762709327035      0.34953179457051836      0.08532883898439973      0.028392345273262176     0.05232882844819263      0.014829668657457273     0.014586546141259081     9.980808944246235E-4     5.8441775062145627E-5
0.675                     0.62                     4652246.521062733        890.6536331853092        890.4503329310506        884.3545258421784        883.9565675775536        0.11289322021219167      0.4627932854020562       0.6454937731097932       0.1964242260739909       0.19400770565891978      0.3337527943117142       0.38446601833805916      0.0978634693008931       0.023121699464155383     0.04261459343176615      0.012076714095234569     0.011878724369579943     8.127988727323991E-4     4.7592676607816555E-5
0.7250000000000001        0.62                     4973516.769319137        893.2984576658367        893.0811181143017        886.5643531266138        886.1389130745163        0.09238760078785556      0.3889893127744206       0.5814223011285953       0.1877132029596372       0.1872122239551995       0.3497528398995011       0.4188129956190883       0.11015741922300941      0.018050431971108824     0.033267802131172974     0.00942789082431209      0.009273326713704767     6.345252024789757E-4     3.715393274038832E-5
0.775                     0.62                     0                        NaN                      NaN                      NaN                      NaN                      0.07457188441839308      0.3216366613849919       0.5080587551903115       0.172186449723082        0.17464791909793118      0.36909030788037184      0.45858829190568157      0.12384056267144945      0.013901877688179763     0.025621739002005244     0.007261043481718995     0.007142003374055955     4.88689923994322E-4      2.86146581094218E-5
0.8250000000000001        0.62                     0                        NaN                      NaN                      NaN                      NaN                      0.04871604366499881      0.21897076664011955      0.3745624601405842       0.13749585800202788      0.14624081970104075      0.40545792165603106      0.5315016226683605       0.1482915927164314       0.008263266872449666     0.015229544542799251     0.004315959391787907     0.004245202033344897     2.9047696351474766E-4    1.7008533515839926E-5
0.8750000000000001        0.62                     0                        NaN                      NaN                      NaN                      NaN                      0.02286020291160452      0.11630487189524717      0.24106616509085682      0.10280526628097378      0.11783372030415032      0.44182553543169023      0.6044149534310395       0.17274262276141333      0.00262465605671957      0.0048373500835932545    0.0013708753018568185    0.0013484006926338375    9.226400303517326E-5     5.4024089222580495E-6
0.925                     0.62                     0                        NaN                      NaN                      NaN                      NaN                      0.002144257585731649     0.03404798136704448      0.13410766484971892      0.07501083452105535      0.0950736823078858       0.4709636131989009       0.6628338069509604       0.19233302039745326      -0.0018930525139137695   -0.003488974876637967    -9.887540588361325E-4    -9.725440705414852E-4    -6.654610456634485E-5    -3.896528397904225E-6
0.9750000000000001        0.62                     0                        NaN                      NaN                      NaN                      NaN                      0.0021442575857316486    0.034047981367044476     0.1341076648497189       0.07501083452105534      0.09507368230788579      0.47096361319890084      0.6628338069509603       0.19233302039745323      -0.001893052513913769    -0.0034889748766379664   -9.887540588361323E-4    -9.725440705414851E-4    -6.654610456634484E-5    -3.896528397904224E-6