% Model:              eigen_1st.mph
% Version:            COMSOL 5.3.1.180
% Date:               Mar 20 2018, 15:06
% Dimension:          2
% Nodes:              1330
% Expressions:        19
% Description:        , , , , , , , , , , , , , , , , , , 
% Length unit:        m
% cpl1x                   cpl1y                    PdensityN (W/m^3) @ lambda=1 Tp221 (K) @ lambda=1     Tp231 (K) @ lambda=1     Tp241 (K) @ lambda=1     Tp31 (K) @ lambda=1      Flux1 (1/(m^2*s)) @ lambda=1 Flux2 (1/(m^2*s)) @ lambda=1 Flux3 (1/(m^2*s)) @ lambda=1 Flux4 (1/(m^2*s)) @ lambda=1 Flux5 (1/(m^2*s)) @ lambda=1 Flux6 (1/(m^2*s)) @ lambda=1 Flux7 (1/(m^2*s)) @ lambda=1 Flux8 (1/(m^2*s)) @ lambda=1 Conc1 (1/(m^2*s)) @ lambda=1 Conc2 (1/(m^2*s)) @ lambda=1 Conc3 (1/(m^2*s)) @ lambda=1 Conc4 (1/(m^2*s)) @ lambda=1 Conc5 (1/(m^2*s)) @ lambda=1 Conc6 (1/(m^2*s)) @ lambda=1
0.025                     0.48                     0                        NaN                      NaN                      NaN                      NaN                      7.346229422357628E-4     0.007013970097273311     0.02992712155349904      0.018465920208231568     0.05953869622481991      0.28649282241893115      0.4029668457915083       0.11619286381877088      -1.0139912836093072E-5   -1.871327594050146E-5    -5.303230102441656E-6    -5.216299344833435E-6    -3.569171852768565E-7    -2.0913942777631818E-8
0.07500000000000001       0.48                     0                        NaN                      NaN                      NaN                      NaN                      9.717938022007048E-4     0.00885014145876277      0.0355813547380535       0.02148542269916208      0.0601034791225388       0.2833573757701319       0.39745572860630834      0.11454545250965882      5.954137966715198E-6     1.099533369760349E-5     3.116009263690592E-6     3.064938397872756E-6     2.097124890605281E-7     1.2291882243311328E-8
0.125                     0.48                     0                        NaN                      NaN                      NaN                      NaN                      0.0011226746021987225    0.009913614449308775     0.03851028141999881      0.022968276227374993     0.06023059360199787      0.28134162495424575      0.3947949035591185       0.11388871015195265      1.416325212608038E-5     2.613839486900232E-5     7.4074609349128455E-6    7.286041764901325E-6     4.985373924082498E-7     2.9212082615824862E-8
0.17500000000000002       0.48                     0                        NaN                      NaN                      NaN                      NaN                      0.0019507846624666528    0.015678562815142374     0.054108630190924246     0.030769784105043333     0.06042602251826592      0.26917206788911846      0.3815406918826289       0.1111851371112982       -1.542165589658352E-5    -2.8397054716119008E-5   -8.047550445092934E-6    -7.915599637088376E-6    -5.416296400900744E-7    -3.169920100419499E-8
0.225                     0.48                     0                        NaN                      NaN                      NaN                      NaN                      0.0030517279430359273    0.02322476993764746      0.07078825644247101      0.038444356783162534     0.06042643966028644      0.2561607266483374       0.3677753987611729       0.10830682763606483      3.260566480619428E-4     6.003166686805369E-4     1.7012602126437174E-4    1.673365738490732E-4     1.1450127711997335E-5    6.700798355969374E-7
0.275                     0.48                     0                        NaN                      NaN                      NaN                      NaN                      0.005204558821605823     0.035572074611188546     0.09350324989394773      0.047957088736544924     0.06078487664570881      0.24004481684008983      0.34668811870541505      0.10280271905210817      5.2708261291794E-4       9.706412412909039E-4     2.7507372112389755E-4    2.705636266262283E-4     1.8513460135247518E-5    1.0835610901332897E-6
0.32500000000000007       0.48                     0                        NaN                      NaN                      NaN                      NaN                      0.010040196185879922     0.058309161496249526     0.12558670958679424      0.05905303087140497      0.06241492357328918      0.22202938850823106      0.3099089156393992       0.09043901443343011      -5.405472065529624E-4    -9.939558057539064E-4    -2.8168084047474967E-4   -2.770615951319398E-4    -1.895847537770449E-5    -1.108723431627465E-6
0.37500000000000006       0.48                     0                        NaN                      NaN                      NaN                      NaN                      0.011839878772489737     0.06665373552374894      0.13712354290225912      0.0629769110937461       0.06301882228531533      0.21564067443539328      0.2964738207074928       0.08587293838304237      -0.0011229588323972766   -0.0020659364970566103   -5.85473503430926E-4     -5.758729840344648E-4    -3.9404948214340926E-5   -2.305091622222099E-6
0.42500000000000004       0.48                     0                        NaN                      NaN                      NaN                      NaN                      0.02322575201550456      0.1048337462384189       0.17357583005180136      0.06732655885736807      0.06481912047773077      0.18185515400496474      0.23730102784779772      0.06635814979848084      0.002607868171621708     0.004807779368132986     0.001362495226553258     0.001340158755864036     9.169969447770884E-5     5.370182969649656E-6
0.47500000000000003       0.48                     2021929.1905047628       1073.15                  1073.15                  1073.15                  1073.15                  0.035837384703954034     0.14712407047594614      0.2139524306314671       0.07214447301714408      0.06681323186891033      0.1444324140216195       0.17175791905251817      0.044742473919406146     0.006740341702161139     0.012421493120806466     0.0035201747990197562    0.0034624631243792355    2.369185601801638E-4     1.3871748187325037E-5
0.525                     0.48                     2021929.1905047619       1073.15                  1073.15                  1073.15                  1073.15                  0.03583738470395401      0.14712407047594606      0.21395243063146696      0.07214447301714404      0.06681323186891029      0.1444324140216194       0.17175791905251808      0.04474247391940612      0.006740341702161134     0.012421493120806459     0.0035201747990197545    0.0034624631243792337    2.3691856018016367E-4    1.387174818732503E-5
0.5750000000000001        0.48                     1261131.5828909064       1073.15                  1073.15                  1073.15                  1073.15                  0.04896782410029968      0.19394859721082705      0.24497046680731105      0.06734979317595902      0.06554055617408881      0.09603337355119973      0.0986978060586325       0.022635392884247544     0.01054124327652976      0.01942815588395515      0.005505820080064476     0.0054155558353721975    3.705580994929741E-4     2.1697713396818723E-5
0.6250000000000001        0.48                     1537660.7237241117       1073.1499999999996       1073.1499999999996       1073.1499999999996       1073.1499999999996       0.02992371976034222      0.12535040965565902      0.1849905614682386       0.05894260843064495      0.05894187315843781      0.1088906207076143       0.12867098504671598      0.033556367619757034     0.005884135461864395     0.010844751256090867     0.003073335909532252     0.0030229505804672124    2.068446811531878E-4     1.2111571794951327E-5
0.675                     0.48                     1599348.4565876436       1073.15                  1073.15                  1073.15                  1073.15                  0.026020950913817988     0.11129652104357224      0.1727896606327048       0.057312909893966084     0.05764082572225584      0.11187343543828275      0.13527460249912568      0.035922731723127044     0.004924547528341554     0.009076146020605195     0.0025721240441540327    0.002529955734694605     1.731116346998024E-4     1.0136346492790546E-5
0.7250000000000001        0.48                     1599348.456587645        1073.1499999999999       1073.1499999999999       1073.1499999999999       1073.1499999999999       0.026020950913818005     0.11129652104357232      0.17278966063270493      0.057312909893966126     0.05764082572225588      0.11187343543828282      0.13527460249912576      0.03592273172312707      0.004924547528341558     0.0090761460206052       0.0025721240441540344    0.002529955734694607     1.7311163469980252E-4    1.0136346492790552E-5
0.775                     0.48                     0                        NaN                      NaN                      NaN                      NaN                      0.026020950913817998     0.1112965210435723       0.17278966063270487      0.05731290989396611      0.057640825722255866     0.11187343543828279      0.13527460249912573      0.03592273172312705      0.004924547528341557     0.009076146020605198     0.0025721240441540344    0.0025299557346946068    1.7311163469980247E-4    1.0136346492790552E-5
0.8250000000000001        0.48                     0                        NaN                      NaN                      NaN                      NaN                      0.026020950913818        0.11129652104357232      0.1727896606327049       0.057312909893966126     0.05764082572225587      0.1118734354382828       0.13527460249912573      0.03592273172312706      0.004924547528341558     0.0090761460206052       0.002572124044154035     0.002529955734694607     1.7311163469980252E-4    1.0136346492790552E-5
0.8750000000000001        0.48                     0                        NaN                      NaN                      NaN                      NaN                      9.232482966893694E-4     0.011646965710847943     0.04322503587375165      0.023783308536848295     0.029987716060501306     0.14681921457237468      0.20648757749028057      0.059890662698447755     -5.353393412767928E-4    -9.866527907291672E-4    -2.7961134248366055E-4   -2.750272947178178E-4    -1.8818679162892336E-5   -1.1019055177079446E-6
0.925                     0.48                     0                        NaN                      NaN                      NaN                      NaN                      6.710416527805732E-4     0.010645588003060535     0.041923041835561996     0.023446369799511143     0.029709830148478694     0.14717038447061753      0.20720319619448108      0.060131516274766636     -5.902057075141693E-4    -0.0010877737879476136   -3.082684121028132E-4    -3.03214550215316E-4     -2.0747385589218222E-5   -1.2148386361773104E-6
0.9750000000000001        0.48                     0                        NaN                      NaN                      NaN                      NaN                      6.710416527805731E-4     0.010645588003060535     0.04192304183556199      0.02344636979951114      0.02970983014847869      0.1471703844706175       0.20720319619448105      0.06013151627476662      -5.902057075141692E-4    -0.0010877737879476134   -3.0826841210281313E-4   -3.0321455021531596E-4   -2.074738558921822E-5    -1.2148386361773104E-6
1.025                     0.48                     0                        NaN                      NaN                      NaN                      NaN                      6.71041652780573E-4      0.010645588003060532     0.04192304183556198      0.023446369799511133     0.029709830148478684     0.14717038447061748      0.207203196194481        0.06013151627476661      -5.902057075141691E-4    -0.0010877737879476132   -3.08268412102813E-4     -3.032145502153159E-4    -2.074738558921821E-5    -1.21483863617731E-6
1.075                     0.48                     0                        NaN                      NaN                      NaN                      NaN                      6.710416527805729E-4     0.01064558800306053      0.041923041835561975     0.02344636979951113      0.02970983014847868      0.14717038447061745      0.20720319619448097      0.0601315162747666       -5.90205707514169E-4     -0.001087773787947613    -3.08268412102813E-4     -3.0321455021531586E-4   -2.074738558921821E-5    -1.2148386361773098E-6
1.125                     0.48                     0                        NaN                      NaN                      NaN                      NaN                      5.040488767832009E-4     0.007987910795319495     0.03197840102730837      0.018239681980751644     0.02529185426390848      0.13734885647401585      0.1946220099591317       0.05643627837449411      -3.503063892394081E-4    -6.456292090704838E-4    -1.8296735351822362E-4   -1.7996772154321199E-4   -1.231424984443015E-5    -7.210462835146406E-7
1.175                     0.48                     0                        NaN                      NaN                      NaN                      NaN                      2.72347629353918E-5      -5.307547979489498E-4    -0.001537633864123874    -3.602477490904693E-5    0.009238628358600148     0.09017813875904103      0.13239362632321508      0.03841031609876716      2.180829523125911E-4     4.0193610012867194E-4    1.1390622259947403E-4    1.120388037792295E-4     7.66622914648219E-6      4.488870516345422E-7
1.225                     0.48                     0                        NaN                      NaN                      NaN                      NaN                      3.936550493003636E-5     -1.04210659483198E-4     -0.0010774045739868304   -7.326582135177885E-4    0.006787284286813898     0.06209120542060735      0.09195055823561389      0.026883256836255906     -5.800830207026522E-5    -1.0691183062547509E-4   -3.0298156238710748E-5   -2.980143742834565E-5    -2.0391567765382515E-6   -1.1940047757757838E-7
1.275                     0.48                     0                        NaN                      NaN                      NaN                      NaN                      -3.66210180648984E-9     5.0433726592158974E-5    -5.012262449465405E-5    -2.4584486012777635E-4   0.005826036694502852     0.051179778074068705     0.0755136981292544       0.022071082655089544     2.163315260358698E-6     3.987235049905186E-6     1.1299576588737396E-6    1.111433308319506E-6     7.604890787751793E-8     4.453038765458022E-9
1.325                     0.48                     0                        NaN                      NaN                      NaN                      NaN                      7.02096728297117E-6      4.903933377252473E-5     -1.3519938986985747E-4   -2.867985390492627E-4    0.005541524797084119     0.049472995726511954     0.07294325562756476      0.02130267164632334      4.2035229759715336E-5    7.747289328556572E-5     2.1955341875436037E-5    2.1595398916549312E-5    1.4776594397419987E-6    8.65227308957041E-8
1.375                     0.48                     0                        NaN                      NaN                      NaN                      NaN                      7.020967282971168E-6     4.903933377252472E-5     -1.3519938986985744E-4   -2.8679853904926264E-4   0.005541524797084118     0.04947299572651195      0.07294325562756475      0.021302671646323337     4.203522975971532E-5     7.747289328556571E-5     2.1955341875436034E-5    2.159539891654931E-5     1.4776594397419983E-6    8.652273089570407E-8
1.425                     0.48                     0                        NaN                      NaN                      NaN                      NaN                      3.822763591661351E-6     2.953734520892974E-5     -5.504276422879239E-5    -1.2692447608838616E-4   0.004215399398403744     0.03800475614090239      0.05598450537356613      0.01634431537904742      4.718185361761746E-5     8.69582235696983E-5      2.4643425736218866E-5    2.4239413276347348E-5    1.6585758165956173E-6    9.711607175707175E-8
1.475                     0.48                     0                        NaN                      NaN                      NaN                      NaN                      1.3843615725554968E-7    1.2118700164949248E-5    4.1436799400011154E-5    4.0993621084508475E-5    0.0025874351080894553    0.02353405350884468      0.034643437385276706     0.010117697612996066     2.2678219646302396E-5    4.1796861909763916E-5    1.1844972353233436E-5    1.1650782699722638E-5    7.972018589335915E-7     4.6679446852507295E-8
1.525                     0.48                     0                        NaN                      NaN                      NaN                      NaN                      1.3843615725554963E-7    1.211870016494925E-5     4.1436799400011154E-5    4.099362108450847E-5     0.0025874351080894553    0.02353405350884468      0.0346434373852767       0.010117697612996066     2.267821964630239E-5     4.179686190976391E-5     1.1844972353233431E-5    1.1650782699722636E-5    7.972018589335913E-7     4.6679446852507275E-8
1.575                     0.48                     0                        NaN                      NaN                      NaN                      NaN                      1.4117853026243771E-8    1.2286224704271587E-5    3.957025487988421E-5     3.0078568459219633E-5    0.002119824966367788     0.018897962063419448     0.02774819453391976      0.008055727427445331     -1.2646693962118973E-5   -2.3308422952131154E-5   -6.605466282185439E-6    -6.4971719843280654E-6   -4.445678850851244E-7    -2.6030900894664347E-8
1.625                     0.48                     0                        NaN                      NaN                      NaN                      NaN                      -2.285346153560601E-8    6.1288043843476125E-6    2.2710168738893268E-5    2.041545323331631E-5     0.0010704669268211382    0.009310599314012836     0.013019511354181779     0.003428807598385385     7.557026026991872E-6     1.3927916292750177E-5    3.947083473421798E-6     3.882376121655919E-6     2.656502755030251E-7     1.55553711032281E-8
1.675                     0.48                     0                        NaN                      NaN                      NaN                      NaN                      -3.9234037028383116E-8   4.529722121158508E-6     1.4319587386434607E-5    1.1993912930254736E-5    2.867398115640381E-4     0.0023181491253270467    0.002693704147148282     5.000806303212634E-4     2.2421145998798434E-6    4.132327788234649E-6     1.1710757721147468E-6    1.1518762746927997E-6    7.88164952820712E-8      4.615156456795008E-9
1.725                     0.48                     0                        NaN                      NaN                      NaN                      NaN                      -4.8552339838086E-8      2.539238620579972E-6     1.0593591175807575E-5    8.64798514209947E-6      1.0035250221320877E-4    6.786482485687019E-4     5.786415555097846E-4     5.3203481893303614E-5    8.457638660823362E-8     1.558910097657608E-7     4.4177866101138696E-8    4.345362894455663E-8     2.9737778166157686E-9    1.7398467734924972E-10
0.025                     0.62                     0                        NaN                      NaN                      NaN                      NaN                      0.0022319057460655593    0.021689469400298575     0.0942384757010779       0.05844796506356553      0.19000198680296546      0.9144823803380786       1.285130509034854        0.37031422921587864      -1.3987307060999023E-5   -2.581206567515887E-5    -7.314983437477949E-6    -7.195075365648121E-6    -4.923124401110967E-7    -2.884638314649868E-8
0.07500000000000001       0.62                     0                        NaN                      NaN                      NaN                      NaN                      0.0027588342705346294    0.02581442805082195      0.10709062886995285      0.06531821329551506      0.1911696732693713       0.9070726012989345       1.2729154001644962       0.3668046811741519       4.462346764166699E-5     8.238389243899732E-5     2.3347095617326308E-5    2.296441605005972E-5     1.5712983090115806E-6    9.2089816238702E-8
0.125                     0.62                     0                        NaN                      NaN                      NaN                      NaN                      0.003864244598562035     0.034042214209571736     0.13098341359199583      0.07765913090251991      0.19206338170051312      0.8900439574461921       1.2520474363837506       0.3620199820250636       8.339011750849953E-6     1.536457807516928E-5     4.3542257611521495E-6    4.282840984680257E-6     2.930539975939053E-7     1.715720962918959E-8
0.17500000000000002       0.62                     0                        NaN                      NaN                      NaN                      NaN                      0.0055599167985680865    0.04649552494019499      0.16661739578350335      0.09586808019326505      0.1925793236094324       0.8623933197202283       1.2221774172303586       0.35607242832344166      -1.5825199400542285E-4   -2.9209281843250084E-4   -8.277733437443898E-5    -8.142048982409599E-5    -5.571066241808048E-6    -3.264612691218383E-7
0.225                     0.62                     0                        NaN                      NaN                      NaN                      NaN                      0.010095137094299225     0.07498515246451071      0.22571735561845196      0.1223415193004109       0.19336147595461178      0.8190595162039138       1.1709729019894355       0.3439699420404504       5.583510945073392E-4     0.0010274828505884386    2.9118224127458426E-4    2.864076204789446E-4     1.9597788315095404E-5    1.1465833449166947E-6
0.275                     0.62                     0                        NaN                      NaN                      NaN                      NaN                      0.01597748743909139      0.11145670872836005      0.2979342901544904       0.1539169387847319       0.194287334338788        0.7670013652705467       1.1081086779063378       0.32863105017290456      0.002253176705329952     0.004149624828701114     0.0011759780193457915    0.0011566969173424984    7.914752156354063E-5     4.632556728582937E-6
0.32500000000000007       0.62                     0                        NaN                      NaN                      NaN                      NaN                      0.029517158794516        0.17634461083165287      0.389404771021826        0.18574560610401658      0.1978136475924813       0.7174985223979602       1.0051832383819648       0.29402073493487574      -0.005066155272362158    -0.009326827263476535    -0.0026431649810279385   -0.0025998262955133555   -1.778952054177197E-4    -1.041029927177067E-5
0.37500000000000006       0.62                     0                        NaN                      NaN                      NaN                      NaN                      0.052671797313196246     0.2640879732398531       0.4883813709769503       0.20835887129451686      0.20230626436566254      0.644016641191118        0.8676897763268677       0.24826639214792706      -0.0033211380380161375   -0.0061072693990876946   -0.0017307618590125425   -0.0017023795399091798   -1.1648851247753162E-4   -6.812664998850672E-6
0.42500000000000004       0.62                     0                        NaN                      NaN                      NaN                      NaN                      0.09133874123826387      0.39313959817865657      0.6092762344630828       0.22149578214507126      0.20896439235944342      0.5310737691418527       0.6709842096621464       0.18343451920497741      0.01151674850607259      0.021230002257529194     0.006016452502876865     0.005917818954814051     4.0492430458466795E-4    2.371234021808495E-5
0.47500000000000003       0.62                     5724715.219824582        1073.1500000000003       1073.1500000000003       1073.1500000000003       1073.1500000000003       0.12924025645950815      0.5215160214953324       0.7191877512598551       0.22706359569217408      0.21334440286353598      0.41537094873908115      0.4777931187298061       0.12115388208687956      0.026030797678086307     0.04797360930369417      0.01359542614147893      0.013372536685795716     9.150133077817971E-4     5.357618865312828E-5
0.525                     0.62                     4753239.181930461        1073.1499999999999       1073.1499999999999       1073.1499999999999       1073.1499999999999       0.14516749361117098      0.578627971293678        0.756240082552606        0.22040692555885275      0.21120451867649603      0.35330642437246884      0.38467229049363844      0.0930993126408794       0.03057576389963499      0.056351902044425        0.015969782951277003     0.01570796841095743      0.001074814230392367     6.293417432536812E-5
0.5750000000000001        0.62                     3975182.0807585265       1073.15                  1073.15                  1073.15                  1073.15                  0.1536926501671049       0.6090838886955923       0.7718590285463939       0.21229980019145656      0.2073323419286625       0.30250062997602956      0.31105030372837483      0.07138857045274602      0.033403169238361875     0.06156419571480712      0.017446915040240617     0.017160884577728373     0.0011742293514169053    6.875606500665403E-5
0.6250000000000001        0.62                     4303422.031655544        1073.1500000000005       1073.1500000000005       1073.1500000000005       1073.1500000000005       0.1330628282750616       0.5350138133584016       0.7074098063587332       0.20365069815034947      0.20044712953874283      0.31827850268162783      0.34616330333030365      0.0840025438634936       0.028179783459226292     0.051937064393419684     0.014718645131390472     0.014477342771028308     9.906086806588084E-4     5.800424626563073E-5
0.675                     0.62                     4631661.982552563        1073.15                  1073.15                  1073.15                  1073.15                  0.11243300638301836      0.4609437380212113       0.6429605841710728       0.19500159610924245      0.19356191714882312      0.3340563753872262       0.38127630293223236      0.09661651727424116      0.022956397680090723     0.04230993307203228      0.011990375222540333     0.01179380096432825      8.069880099007122E-4     4.7252427524607446E-5
0.7250000000000001        0.62                     4954262.337063476        1073.15                  1073.15                  1073.15                  1073.15                  0.09203070577658928      0.38748692072001734      0.5791809908512731       0.18648020765193804      0.18676006348040414      0.3496500767907783       0.41580902608734815      0.10899282366261552      0.01793172214203673      0.03304901430120678      0.009365887700433614     0.009212340088960096     6.30352208160455E-4      3.6909588410869496E-5
0.775                     0.62                     0                        NaN                      NaN                      NaN                      NaN                      0.07429378252206434      0.3204210835006808       0.5061225313885196       0.17113149449554432      0.17420160840494708      0.368637958318068        0.45572588611988435      0.12276241672671548      0.013815663944484134     0.025462843525724463     0.0072160134834656185    0.0070977116116391365    4.8565927167438654E-4    2.8437202728814813E-5
0.8250000000000001        0.62                     0                        NaN                      NaN                      NaN                      NaN                      0.048535324552256814     0.21814802202149222      0.3731468167528028       0.13671914845426628      0.145820466360868        0.40450376630773444      0.5288137081886152       0.1473613591904651       0.0082120328633275       0.015135118148044456     0.004289199534861912     0.0042188808847249985    2.886759462209192E-4     1.69030776145517E-5
0.8750000000000001        0.62                     0                        NaN                      NaN                      NaN                      NaN                      0.0227768665824493       0.11587496054230362      0.24017110211708603      0.1023068024129882       0.11743932431678894      0.44036957429740076      0.6019015302573459       0.17196030165421478      0.0026084017821708643    0.0048073927703644465    0.0013623855862582041    0.0013400501578108594    9.169262076745174E-5     5.36895250028859E-6
0.925                     0.62                     0                        NaN                      NaN                      NaN                      NaN                      0.0021389452682380765    0.033932811759755446     0.13362969585085382      0.07473530373594174      0.09470008359827581      0.46910560050009326      0.6604601878699082       0.19166920812581859      -0.0018812806927014142   -0.0034672789490830173   -9.826055635777167E-4    -9.664963788113196E-4    -6.613229156563306E-5    -3.872298152815176E-6
0.9750000000000001        0.62                     0                        NaN                      NaN                      NaN                      NaN                      0.0021389452682380765    0.033932811759755446     0.1336296958508538       0.07473530373594173      0.0947000835982758       0.46910560050009315      0.6604601878699081       0.19166920812581856      -0.0018812806927014137   -0.0034672789490830165   -9.826055635777165E-4    -9.664963788113194E-4    -6.613229156563306E-5    -3.8722981528151754E-6