% Model:              ss.mph
% Version:            COMSOL 5.3.1.180
% Date:               Mar 30 2018, 09:35
% Dimension:          2
% Nodes:              1330
% Expressions:        19
% Description:        , , , , , , , , , , , , , , , , , , 
% Length unit:        m
% cpl1x                   cpl1y                    PdensityN (W/m^3)        Tp221 (K)                Tp231 (K)                Tp241 (K)                Tp31 (K)                 Flux1 (1/(m^2*s))        Flux2 (1/(m^2*s))        Flux3 (1/(m^2*s))        Flux4 (1/(m^2*s))        Flux5 (1/(m^2*s))        Flux6 (1/(m^2*s))        Flux7 (1/(m^2*s))        Flux8 (1/(m^2*s))        Conc1 (1/(m^2*s))        Conc2 (1/(m^2*s))        Conc3 (1/(m^2*s))        Conc4 (1/(m^2*s))        Conc5 (1/(m^2*s))        Conc6 (1/(m^2*s))
0.025                     0.48                     0                        NaN                      NaN                      NaN                      NaN                      7.462631296960712E-4     0.007124305382351455     0.030392083933011328     0.018751898562564172     0.060418036458382694     0.2906900275505838       0.4088647177541046       0.11789289588360462      -1.0317155484679222E-5   -1.9040378503302015E-5   -5.395929585630917E-6    -5.307478542392385E-6    -3.6315579592786067E-7   -2.127960599241702E-8
0.07500000000000001       0.48                     0                        NaN                      NaN                      NaN                      NaN                      9.872548688703133E-4     0.008989897005377133     0.03613605191384682      0.0218194699232232       0.06099546514264065      0.28752361674499305      0.40329304467558724      0.11622706864617327      6.060091674307999E-6     1.1190996415829617E-5    3.1714578635125424E-6    3.119479263454866E-6     2.1344455902277931E-7    1.2510413493646543E-8
0.125                     0.48                     0                        NaN                      NaN                      NaN                      NaN                      0.0011405760293144056    0.010070464126872871     0.03911152423440008      0.023326058469147447     0.061126185080929624     0.2854833702577174       0.40059990876206486      0.11556261143768143      1.4417464329443961E-5    2.6607550718486355E-5    7.540416012507421E-6     7.4168185312460794E-6    5.074860043235048E-7     2.973644469911966E-8
0.17500000000000002       0.48                     0                        NaN                      NaN                      NaN                      NaN                      0.0019821266605046864    0.01592840961785851      0.0549586864254991       0.031253086602080246     0.06133383132410189      0.2731621318636198       0.3871868496533428       0.11282967367839768      -1.5716674222583918E-5   -2.8940374577270027E-5   -8.201524457000321E-6    -8.067048006814608E-6    -5.519924796687682E-7    -3.230578972407194E-8
0.225                     0.48                     0                        NaN                      NaN                      NaN                      NaN                      0.0031009555502251244    0.023596519423857355     0.07190465485906275      0.0390521022344464       0.06134310265195607      0.2599790032085535       0.37324816125547927      0.10991659382018495      3.319260530125038E-4     6.111230796268099E-4     1.7318849073588979E-4    1.7034883070848916E-4    1.1656243398197986E-5    6.821421635596935E-7
0.275                     0.48                     0                        NaN                      NaN                      NaN                      NaN                      0.005288875976157294     0.03614378294115468      0.09498315793912415      0.048722307781037075     0.061717526115000976     0.2436528436865562       0.3518811790468885       0.10434016138282112      5.365579497851726E-4     9.880904285981477E-4     2.800187125198178E-4     2.7542754063303825E-4    1.8846275619650318E-5    1.1030405360688184E-6
0.32500000000000007       0.48                     0                        NaN                      NaN                      NaN                      NaN                      0.010203395636927392     0.05924930667985144      0.12758017813961506      0.06001028994495548      0.0633829938384677       0.22541667490734943      0.3145755335703968       0.09180167147589259      -5.503914398224488E-4    -0.0010120581213063059   -2.8681092315217E-4      -2.821075506809505E-4    -1.9303754657973436E-5   -1.1289161523091501E-6
0.37500000000000006       0.48                     0                        NaN                      NaN                      NaN                      NaN                      0.01203240296130951      0.06772886493059409      0.13930106457876343      0.06400207610247635      0.06399938982800114      0.218949175723512        0.3009453238941601       0.08717040186209558      -0.001143275524200708    -0.002103314490219562    -5.960661930931089E-4    -5.862919768797206E-4    -4.0117882815527816E-5   -2.346796843814744E-6
0.42500000000000004       0.48                     0                        NaN                      NaN                      NaN                      NaN                      0.023605819510250266     0.10653362418427104      0.17634087299304751      0.06849409459962238      0.06577209103163756      0.1844233383455238       0.24111417423201315      0.06748596719379676      0.0026534296216911704    0.004891775750277947     0.001386299287010582     0.0013635725774796997    9.330177325112527E-5     5.46400563954073E-6
0.47500000000000003       0.48                     2054743.5370459838       883.2432936911589        883.1535026708956        880.4611856355135        880.285420589212         0.036425185697662274     0.1495159549924349       0.21736824512351402      0.07346970658006328      0.06773563444806809      0.14618058173136067      0.17484183246590645      0.045682381784248306     0.0068588734821970095    0.012639930578001378     0.003582078631793599     0.0035233520715026723    2.4108487778938995E-4    1.4115689161710791E-5
0.525                     0.48                     2054743.5370459827       880.9991943996646        880.9094033938507        878.217086791714         878.0413217736964        0.036425185697662246     0.14951595499243478      0.21736824512351388      0.07346970658006324      0.06773563444806806      0.1461805817313606       0.17484183246590637      0.04568238178424828      0.006858873482197006     0.012639930578001371     0.003582078631793597     0.00352335207150267      2.410848777893898E-4     1.4115689161710783E-5
0.5750000000000001        0.48                     1284338.8363441457       877.7831413285508        877.727016502235         876.0441552811984        875.9342914811529        0.04978526679480678      0.19712998641605778      0.2488882758167505       0.06872047413455448      0.06642372751532413      0.09674094991795783      0.10092665006023394      0.02333630757301752      0.01074078056736192      0.019795915101000768     0.005610040783977289     0.005518067910337503     3.775724634701712E-4     2.210843340220264E-5
0.6250000000000001        0.48                     1562560.4739511586       879.2194934541386        879.1512105284703        877.1037977308071        876.9701345698754        0.030407963018622537     0.12736413538579627      0.18790859135238         0.06003257054885929      0.05974524633023833      0.11008644791346905      0.13101138800589496      0.034286969781497076     0.005987822463082281     0.011035851490781333     0.003127492542124844     0.003076219350698776     2.104895840723876E-4     1.2324995132727492E-5
0.675                     0.48                     1624669.336740438        879.5007309728762        879.4297339259897        877.3009402199671        877.161964193226         0.026436911353907994     0.11307109081969575      0.17550445126577174      0.05834664683593708      0.05842867508938048      0.11317551688952003      0.13764471604806647      0.036661341049401934     0.005008460323101952     0.00923080076916732      0.002615952249661365     0.0025730654053009124    1.7606140376930557E-4    1.0309066587756372E-5
0.7250000000000001        0.48                     1624669.3367404393       879.4313092261885        879.3603121802809        877.2315185036035        877.0925424787782        0.02643691135390801      0.11307109081969584      0.17550445126577188      0.05834664683593712      0.05842867508938052      0.11317551688952011      0.13764471604806655      0.03666134104940196      0.005008460323101955     0.009230800769167326     0.0026159522496613666    0.0025730654053009146    1.760614037693057E-4     1.0309066587756379E-5
0.775                     0.48                     0                        NaN                      NaN                      NaN                      NaN                      0.026436911353908004     0.11307109081969581      0.17550445126577183      0.058346646835937106     0.05842867508938051      0.11317551688952009      0.13764471604806652      0.03666134104940195      0.005008460323101955     0.009230800769167324     0.0026159522496613666    0.002573065405300914     1.7606140376930568E-4    1.0309066587756379E-5
0.8250000000000001        0.48                     0                        NaN                      NaN                      NaN                      NaN                      0.026436911353908008     0.11307109081969584      0.17550445126577185      0.05834664683593711      0.05842867508938051      0.11317551688952009      0.13764471604806652      0.036661341049401955     0.005008460323101956     0.009230800769167326     0.0026159522496613666    0.0025730654053009146    1.760614037693057E-4     1.0309066587756379E-5
0.8750000000000001        0.48                     0                        NaN                      NaN                      NaN                      NaN                      9.358284165948014E-4     0.01182334784312648      0.043887453998252654     0.02415044216493553      0.030429861184303256     0.14893685677351562      0.20938502802644676      0.0607229257854274       -5.44827169224051E-4     -0.0010041392535692858   -2.8456689900077593E-4   -2.799016077251906E-4    -1.9152203038425637E-5   -1.1214346066495135E-6
0.925                     0.48                     0                        NaN                      NaN                      NaN                      NaN                      6.795682065758079E-4     0.01080590995851175      0.042564835682600936     0.023806804735404207     0.030148501292676873     0.14929622223622008      0.21010594593646645      0.06096472048775438      -6.006321176875159E-4    -0.0011069900966572312   -3.137141963146752E-4    -3.0857105394959305E-4   -2.1113903253357176E-5   -1.2362996358681285E-6
0.9750000000000001        0.48                     0                        NaN                      NaN                      NaN                      NaN                      6.795682065758078E-4     0.010805909958511748     0.04256483568260093      0.023806804735404204     0.03014850129267687      0.14929622223622008      0.21010594593646642      0.06096472048775437      -6.006321176875159E-4    -0.001106990096657231    -3.1371419631467517E-4   -3.08571053949593E-4     -2.1113903253357173E-5   -1.2362996358681283E-6
1.025                     0.48                     0                        NaN                      NaN                      NaN                      NaN                      6.795682065758075E-4     0.010805909958511745     0.04256483568260092      0.0238068047354042       0.030148501292676863     0.14929622223622002      0.21010594593646634      0.06096472048775436      -6.006321176875157E-4    -0.0011069900966572308   -3.1371419631467506E-4   -3.0857105394959295E-4   -2.1113903253357166E-5   -1.236299635868128E-6
1.075                     0.48                     0                        NaN                      NaN                      NaN                      NaN                      6.795682065758074E-4     0.010805909958511745     0.042564835682600916     0.023806804735404197     0.030148501292676856     0.14929622223622         0.2101059459364663       0.060964720487754344     -6.006321176875156E-4    -0.0011069900966572306   -3.1371419631467506E-4   -3.085710539495929E-4    -2.1113903253357163E-5   -1.2362996358681279E-6
1.125                     0.48                     0                        NaN                      NaN                      NaN                      NaN                      5.103562731620114E-4     0.00810822759305088      0.03246864616108013      0.01852060217383895      0.025660611656439236     0.1392943824410969       0.19731517596110593      0.057210836407348004     -3.567556650738705E-4    -6.575154914022941E-4    -1.8633585319188212E-4   -1.832809965712279E-4    -1.2540960014087287E-5   -7.343210260276729E-7
1.175                     0.48                     0                        NaN                      NaN                      NaN                      NaN                      2.7324182285364623E-5    -5.39289533253239E-4     -0.0015594081778844732   -3.4464748494128115E-5   0.009357181099879897     0.09134049116178386      0.134119212533662        0.03891271531644916      2.2145400669910646E-4    4.081490963100889E-4     1.156669476261347E-4     1.1377066282801444E-4    7.78473119657692E-6      4.558257995190373E-7
1.225                     0.48                     0                        NaN                      NaN                      NaN                      NaN                      3.98293472872859E-5      -1.0642395370532598E-4   -0.00109421971939164     -7.434744021197075E-4    0.0068742473144330464    0.06289224049056287      0.09313528363955409      0.027229655970581683     -5.885565491835561E-5    -1.0847354072805854E-4   -3.074073528238873E-5    -3.023676057710357E-5    -2.0689438398398803E-6   -1.2114462569176387E-7
1.275                     0.48                     0                        NaN                      NaN                      NaN                      NaN                      -1.3373409311078089E-8   5.0984960606341906E-5    -5.157845996369284E-5    -2.5017244593838073E-4   0.005900977064557949     0.051837438053819046     0.07648064203773217      0.022353333779308173     2.0920500901027873E-6    3.855887467900162E-6     1.0927344220097954E-6    1.0748205629785205E-6    7.354337859123263E-8     4.306325028640434E-9
1.325                     0.48                     0                        NaN                      NaN                      NaN                      NaN                      7.101919518154279E-6     4.954931479361886E-5     -1.3788502597227834E-4   -2.916873458013502E-4    0.005612601613781113     0.0501072468675399       0.07387688015466978      0.02157507766802423      4.2550978653530194E-5    7.842343692823253E-5     2.222471994198867E-5     2.186036097497846E-5     1.49578906955182E-6      8.758429034660049E-8
1.375                     0.48                     0                        NaN                      NaN                      NaN                      NaN                      7.101919518154278E-6     4.954931479361885E-5     -1.378850259722783E-4    -2.916873458013501E-4    0.005612601613781112     0.050107246867539895     0.07387688015466977      0.021575077668024228     4.255097865353019E-5     7.84234369282325E-5      2.2224719941988667E-5    2.1860360974978455E-5    1.4957890695518195E-6    8.758429034660047E-8
1.425                     0.48                     0                        NaN                      NaN                      NaN                      NaN                      3.866960472514727E-6     2.9855674935906922E-5    -5.626590278070049E-5    -1.2919640675650962E-4   0.004269072967623108     0.038489009973094006     0.05669822678894273      0.01655259293485151      4.7850118855916175E-5    8.818986058695118E-5     2.4992463691658398E-5    2.458272923606101E-5     1.6820669338712722E-6    9.849159822276146E-8
1.475                     0.48                     0                        NaN                      NaN                      NaN                      NaN                      1.4028829199393577E-7    1.2284993508262146E-5    4.194139855308857E-5     4.147496107820777E-5     0.00261984685989807      0.02382990524492977      0.03508042256331026      0.010245384038139519     2.3055487733978803E-5    4.249217941835734E-5     1.2042020230619325E-5    1.1844600632502963E-5    8.104636768985424E-7     4.745610497815244E-8
1.525                     0.48                     0                        NaN                      NaN                      NaN                      NaN                      1.4028829199393574E-7    1.2284993508262146E-5    4.194139855308857E-5     4.147496107820777E-5     0.00261984685989807      0.02382990524492977      0.03508042256331026      0.010245384038139519     2.3055487733978797E-5    4.2492179418357334E-5    1.2042020230619322E-5    1.1844600632502958E-5    8.104636768985424E-7     4.7456104978152435E-8
1.575                     0.48                     0                        NaN                      NaN                      NaN                      NaN                      1.4488886720871861E-8    1.2456718491419773E-5    4.0063599898512063E-5    3.0414285681779845E-5    0.0021464130708527393    0.01913565964919602      0.02809755189879288      0.00815719254107828      -1.282672956735041E-5    -2.36402407230369E-5     -6.699502599792607E-6    -6.589665639824963E-6    -4.5089694561231544E-7   -2.6401361092897596E-8
1.625                     0.48                     0                        NaN                      NaN                      NaN                      NaN                      -2.3034830232524612E-8   6.214249119315363E-6     2.2997835725018103E-5    2.06591951595823E-5      0.001083921504733314     0.0094277737621002       0.01318344948011847      0.0034719943587019977    7.669072016951732E-6     1.4134417992732197E-5    4.005603474920809E-6     3.939938063679197E-6     2.6958873635862887E-7    1.5786243916759788E-8
1.675                     0.48                     0                        NaN                      NaN                      NaN                      NaN                      -3.9621643502941255E-8   4.593341120114707E-6     1.4505728275348562E-5    1.2141714642736521E-5    2.9035005948011754E-4    0.0023473442106565897    0.002727642000790921     5.063870552794353E-4     2.275137455930167E-6     4.193197099188329E-6     1.1883254517855066E-6    1.1688429504761948E-6    7.997724969947718E-8     4.68319638588437E-9
1.725                     0.48                     0                        NaN                      NaN                      NaN                      NaN                      -4.909885001202143E-8    2.5751883126942255E-6    1.0732913005603852E-5    8.756036948846647E-6     1.0161920743329505E-4    6.872178310503442E-4     5.859532953355862E-4     5.38775828896439E-5      8.585673163900329E-8     1.5825750036809826E-7    4.4848163652695096E-8    4.4112950235798835E-8    3.0191352033234443E-9    1.7656835032633535E-10
0.025                     0.62                     0                        NaN                      NaN                      NaN                      NaN                      0.002266550471022144     0.022024023496288164     0.09567585345923328      0.05933674283406562      0.1927713242433535       0.9277164387609452       1.3037126541381021       0.3756671261708426       -1.4222410439387698E-5   -2.6245938761616637E-5   -7.437940772915641E-6    -7.316016284083871E-6    -5.005874659749515E-7    -2.933128390835526E-8
0.07500000000000001       0.62                     0                        NaN                      NaN                      NaN                      NaN                      0.0028018892404085122    0.026214592353131044     0.10873116629768889      0.06631607174144756      0.19396797578000163      0.9202433159431073       1.2913802994005263       0.37212375419704474      4.539851228817206E-5     8.381474045588005E-5     2.375258846818959E-5     2.336326396378433E-5     1.5985888874839434E-6    9.368942046677064E-8
0.125                     0.62                     0                        NaN                      NaN                      NaN                      NaN                      0.003924786661048091     0.0345718490657054       0.1329960330530225       0.07885003564468929      0.194887464851898        0.9030057591018323       1.2702599228303053       0.36728405543806036      8.485257417303979E-6     1.5634039881282602E-5    4.430589037184177E-6     4.35795356571477E-6      2.9819377456754916E-7    1.7458390520087747E-8
0.17500000000000002       0.62                     0                        NaN                      NaN                      NaN                      NaN                      0.005647224161748588     0.0472206311888315       0.16918319921630415      0.09734305376127231      0.1954278325496226       0.8750017068036913       1.2400197390340881       0.36126853446429424      -1.6101093494776223E-4   -2.9718502536707985E-4   -8.422043445415033E-5    -8.283993515963602E-5    -5.66818938746938E-6     -3.321523623881638E-7
0.225                     0.62                     0                        NaN                      NaN                      NaN                      NaN                      0.010255293225267727     0.07616584840781696      0.22922080482402696      0.12424528453482056      0.19625586869090406      0.8311248823941711       1.1881877212159193       0.3490216538397214       5.680602116099584E-4     0.001045349667368832     2.962455865853313E-4     2.9138793980008085E-4    1.993857275165293E-5     1.1665213412828904E-6
0.275                     0.62                     0                        NaN                      NaN                      NaN                      NaN                      0.016231479279111165     0.11321623987178736      0.30257351428195606      0.15632806785479608      0.19723350635630132      0.7784017075883292       1.1245205572824353       0.33348710468780995      0.0022924730539923594    0.004221995848204091     0.001196487519428096     0.0011768701471218427    8.052788401467483E-5     4.713350130823451E-6
0.32500000000000007       0.62                     0                        NaN                      NaN                      NaN                      NaN                      0.029987872251498744     0.17913600749014513      0.39548264146725687      0.18869124613910165      0.2008519537240714       0.728365394096845        1.0200682378699306       0.2983668428370668       -0.005154305591833295    -0.009489112693774202    -0.002689155664637278    -0.0026450628929756514   -1.8099055597056672E-4   -1.0591436999598865E-5
0.37500000000000006       0.62                     0                        NaN                      NaN                      NaN                      NaN                      0.05352170303433618      0.26830573597838114      0.496048071969376        0.21178860406387476      0.20535923819206253      0.6535713943792864       0.8808682508021637       0.25211191845407105      -0.0033778760791303352   -0.006211601697280659    -0.0017603289776783452   -0.0017314617936646601   -1.1847852119577253E-4   -6.929045602682081E-6
0.42500000000000004       0.62                     0                        NaN                      NaN                      NaN                      NaN                      0.09282019244947327      0.3994548787293732       0.6188887941906833       0.22538518132954372      0.21194349476886934      0.5381706828058842       0.6820336821479192       0.18672890269288367      0.01171947287045733      0.021603703210204002     0.006122357062269813     0.006021987316090043     4.120519816898414E-4     2.4129735483655782E-5
0.47500000000000003       0.62                     5819220.553722301        901.5506564355915        901.2963600888293        893.6714730520627        893.1736904338021        0.13134389618101153      0.529911217052787        0.7305440657003481       0.2313006629948257       0.21625038418435946      0.4199639870321688       0.48671001588033913      0.12387858519584546      0.026495934371692433     0.0488308369393026       0.013838359187164194     0.01361148697925247      9.313634360175074E-4     5.453352801947899E-5
0.525                     0.62                     4835801.203608022        889.561331376947         889.3500098449098        883.0136907009827        882.6000308633498        0.1475602533562816       0.5880235857086374       0.7682396125482431       0.22471183190687116      0.21405944170436741      0.3565688271690129       0.39253106382775227      0.09553349032849115      0.031140877128754428     0.057393420815455704     0.016264942974639922     0.015998289471823024     0.001094679383702521     6.409734987130083E-5
0.5750000000000001        0.62                     4047853.4791161646       888.605751068997         888.4288623765605        883.1249863473365        882.7787284573475        0.15624377642313517      0.6190215858731892       0.7841401565809393       0.21659097309320618      0.21012130601516887      0.30472788739578616      0.31802553110458703      0.07358130863668244      0.03403142934340081      0.06272211886007653      0.017775063349372976     0.01748365311539663      0.0011963147101892776    7.00492552718513E-5
0.6250000000000001        0.62                     4378516.35174931         889.1639055918923        888.9725671578024        883.235426360051         882.8608832417247        0.13525914922524154      0.5437137477581433       0.718644198918218        0.2076559264263394       0.20315584947276422      0.3210659104989642       0.3533154855422578       0.08624559930848982      0.028702392193358375     0.05290026382800706      0.014991609936114172     0.014745832500115956     0.0010089800253944739    5.907996439248481E-5
0.675                     0.62                     4709179.224382455        890.7980147727642        890.5922265948635        884.4218209638982        884.0189926130122        0.11427452202734797      0.46840590964309753      0.653148241255497        0.1987208797594727       0.19619039293035961      0.3374039336021422       0.3886054399799285       0.09890988998029722      0.02337335504331596      0.04307840879593762      0.012208156522855377     0.012008011884835289     8.216453405996706E-4     4.811067351311834E-5
0.7250000000000001        0.62                     5033991.89827615         893.6670960436246        893.447113766619         886.8511086190174        886.4204954575893        0.0935155994471078       0.39370031786633986      0.5883076977196761       0.1899061836016675       0.18930748579753628      0.3535530122651264       0.42329457181063845      0.11132849348395708      0.01824524514102914      0.0336268520231901       0.00952964336104593      0.009373411082990085     6.413734526798939E-4     3.7554925059173136E-5
0.775                     0.62                     0                        NaN                      NaN                      NaN                      NaN                      0.07548066233190782      0.32552683185235104      0.5140687337385753       0.17419683728638574      0.17659375780654407      0.3730693634126624       0.4634623293093899       0.12514900454072905      0.014050952615868617     0.02589649026941238      0.0073389063060650215    0.007218589686537431     4.939303254589131E-4     2.892150409347973E-5
0.8250000000000001        0.62                     0                        NaN                      NaN                      NaN                      NaN                      0.04930820411746315      0.22161350672513633      0.3789866131179457       0.13910033804968772      0.147857810051462        0.4097722036844741       0.5370913717371547       0.1498440664181011       0.00835146192353279      0.015392091662854828     0.004362024249519904     0.004290511686118133     2.9357726674270615E-4    1.7190068388723422E-5
0.8750000000000001        0.62                     0                        NaN                      NaN                      NaN                      NaN                      0.02313574590301848      0.11770018159792159      0.2439044924973159       0.10400383881298966      0.11912186229637994      0.4464750439562857       0.6107204141649194       0.1745391282954731       0.0026519712311969595    0.004887693056297277     0.0013851421929747855    0.0013624336856988327    9.322420802649895E-5     5.458632683967105E-6
0.925                     0.62                     0                        NaN                      NaN                      NaN                      NaN                      0.0021661236584603867    0.034443837992756195     0.13567541373829045      0.0758841900941009       0.09609834787040751      0.4758817083779514       0.6697127026724866       0.19432504655471702      -0.0019145148751289565   -0.003528530933094923    -9.999640007530269E-4    -9.835702344643275E-4    -6.730056662007597E-5    -3.940705089329659E-6
0.9750000000000001        0.62                     0                        NaN                      NaN                      NaN                      NaN                      0.0021661236584603863    0.03444383799275619      0.13567541373829042      0.07588419009410088      0.0960983478704075       0.4758817083779513       0.6697127026724865       0.194325046554717        -0.0019145148751289563   -0.0035285309330949227   -9.999640007530269E-4    -9.835702344643273E-4    -6.730056662007597E-5    -3.940705089329658E-6