% Model:              eigen_1st.mph
% Version:            COMSOL 5.3.1.180
% Date:               Mar 20 2018, 10:18
% Dimension:          2
% Nodes:              1330
% Expressions:        19
% Description:        , , , , , , , , , , , , , , , , , , 
% Length unit:        m
% cpl1x                   cpl1y                    PdensityN (W/m^3) @ lambda=1 Tp221 (K) @ lambda=1     Tp231 (K) @ lambda=1     Tp241 (K) @ lambda=1     Tp31 (K) @ lambda=1      Flux1 (1/(m^2*s)) @ lambda=1 Flux2 (1/(m^2*s)) @ lambda=1 Flux3 (1/(m^2*s)) @ lambda=1 Flux4 (1/(m^2*s)) @ lambda=1 Flux5 (1/(m^2*s)) @ lambda=1 Flux6 (1/(m^2*s)) @ lambda=1 Flux7 (1/(m^2*s)) @ lambda=1 Flux8 (1/(m^2*s)) @ lambda=1 Conc1 (1/(m^2*s)) @ lambda=1 Conc2 (1/(m^2*s)) @ lambda=1 Conc3 (1/(m^2*s)) @ lambda=1 Conc4 (1/(m^2*s)) @ lambda=1 Conc5 (1/(m^2*s)) @ lambda=1 Conc6 (1/(m^2*s)) @ lambda=1
0.025                     0.48                     0                        NaN                      NaN                      NaN                      NaN                      7.346229422358823E-4     0.007013970097273316     0.02992712155349868      0.01846592020823139      0.05953869622481923      0.2864928224189265       0.40296684579150227      0.11619286381876905      -1.0139912828201892E-5   -1.8713275940501438E-5   -5.3032301024416595E-6   -5.216299344833447E-6    -3.5691718527685664E-7   -2.0913943262527975E-8
0.07500000000000001       0.48                     0                        NaN                      NaN                      NaN                      NaN                      9.71793802201032E-4      0.008850141458762775     0.035581354738052476     0.02148542269916192      0.0601034791225369       0.28335737577012743      0.3974557286063021       0.11454545250965693      5.954137988386421E-6     1.0995333697603479E-5    3.1160092636905937E-6    3.064938397872763E-6     2.0971248906052823E-7    1.2291881573621757E-8
0.125                     0.48                     0                        NaN                      NaN                      NaN                      NaN                      0.0011226746021986793    0.009913614449308637     0.03851028141999752      0.022968276227374965     0.06023059360199656      0.28134162495424136      0.3947949035591123       0.11388871015195076      1.4163252141586911E-5    2.6138394869323043E-5    7.407460934912849E-6     7.28604176493982E-6      4.985373924082502E-7     2.921208574917717E-8
0.17500000000000002       0.48                     0                        NaN                      NaN                      NaN                      NaN                      0.0019507846624657813    0.01567856281514236      0.054108630190922095     0.030769784105042667     0.06042602251826486      0.26917206788911413      0.3815406918826229       0.11118513711129638      -1.5421655902030297E-5   -2.8397054707582803E-5   -8.047550445092943E-6    -7.915599636064423E-6    -5.416296400900748E-7    -3.1699200422669476E-8
0.225                     0.48                     0                        NaN                      NaN                      NaN                      NaN                      0.0030517279430354112    0.023224769937647202     0.07078825644246967      0.03844435678316191      0.060426439660284915     0.25616072664833317      0.3677753987611672       0.1083068276360631       3.2605664804158374E-4    6.003166686853135E-4     1.7012602126230105E-4    1.6733657385291085E-4    1.1450127711997342E-5    6.700798355969376E-7
0.275                     0.48                     0                        NaN                      NaN                      NaN                      NaN                      0.005204558821605739     0.03557207461118792      0.09350324989394707      0.04795708873654453      0.060784876645707184     0.24004481684008594      0.3466881187054097       0.10280271905210653      5.270826128944808E-4     9.706412412909031E-4     2.7507372111967783E-4    2.705636266328807E-4     1.8513460135247528E-5    1.0835610901332901E-6
0.32500000000000007       0.48                     0                        NaN                      NaN                      NaN                      NaN                      0.010040196185879431     0.05830916149624854      0.12558670958679252      0.05905303087140499      0.0624149235732881       0.22202938850822745      0.30990891563939416      0.09043901443342868      -5.405472065529628E-4    -9.939558057539056E-4    -2.8168084047658045E-4   -2.7706159512905476E-4   -1.8958475377704503E-5   -1.1087234316274658E-6
0.37500000000000006       0.48                     0                        NaN                      NaN                      NaN                      NaN                      0.011839878772489097     0.06665373552374784      0.13712354290225684      0.06297691109374615      0.06301882228531391      0.2156406744353898       0.2964738207074879       0.085872938383041        -0.0011229588323972773   -0.002065936497056608    -5.854735034309265E-4    -5.75872984034466E-4     -3.940494821434095E-5    -2.3050916222220997E-6
0.42500000000000004       0.48                     0                        NaN                      NaN                      NaN                      NaN                      0.02322575201550399      0.10483374623841742      0.17357583005179844      0.0673265588573675       0.06481912047773003      0.18185515400496188      0.23730102784779383      0.06635814979847972      0.00260786817162171      0.004807779368136325     0.0013624952265532586    0.0013401587558640393    9.169969447770889E-5     5.370182969649661E-6
0.47500000000000003       0.48                     2021929.1905047316       1073.15                  1073.15                  1073.15                  1073.15                  0.035837384703953534     0.1471240704759442       0.2139524306314635       0.07214447301714282      0.06681323186891037      0.14443241402161727      0.17175791905251536      0.04474247391940528      0.006740341702161142     0.012421493120813502     0.0035201747990197584    0.0034624631243792437    2.3691856018016397E-4    1.3871748187325049E-5
0.525                     0.48                     2021929.190504731        1073.15                  1073.15                  1073.15                  1073.15                  0.03583738470395351      0.1471240704759441       0.21395243063146335      0.07214447301714277      0.06681323186891033      0.1444324140216172       0.17175791905251528      0.04474247391940525      0.006740341702161139     0.012421493120813493     0.0035201747990197562    0.0034624631243792415    2.3691856018016384E-4    1.387174818732504E-5
0.5750000000000001        0.48                     1261131.5828908884       1073.15                  1073.15                  1073.15                  1073.15                  0.04896782410029893      0.19394859721082405      0.24497046680730783      0.06734979317595731      0.06554055617408815      0.09603337355119826      0.09869780605863102      0.022635392884247197     0.010541243276507524     0.01942815588395543      0.005505820080064477     0.005415555835372114     3.705580994929743E-4     2.169771339564728E-5
0.6250000000000001        0.48                     1537660.723724091        1073.1499999999996       1073.1499999999996       1073.1499999999996       1073.1499999999996       0.029923719760341937     0.1253504096556572       0.18499056146823584      0.05894260843064469      0.0589418731584367       0.10889062070761264      0.1286709850467141       0.033556367619756576     0.005884135461860546     0.010844751256090857     0.0030733359095322537    0.003022950580467203     2.0684468115318792E-4    1.2111571794748412E-5
0.675                     0.48                     1599348.4565876222       1073.15                  1073.15                  1073.15                  1073.15                  0.026020950913817797     0.11129652104357068      0.1727896606327021       0.05731290989396612      0.057640825722254645     0.11187343543828102      0.13527460249912374      0.03592273172312655      0.004924547528341558     0.009076146020605184     0.0025721240441540344    0.002529955734694611     1.731116346998025E-4     1.0136346492790549E-5
0.7250000000000001        0.48                     1599348.4565876236       1073.1499999999999       1073.1499999999999       1073.1499999999999       1073.1499999999999       0.026020950913817818     0.11129652104357077      0.1727896606327022       0.05731290989396616      0.057640825722254686     0.1118734354382811       0.13527460249912385      0.03592273172312657      0.004924547528341561     0.009076146020605191     0.002572124044154036     0.002529955734694613     1.7311163469980263E-4    1.0136346492790557E-5
0.775                     0.48                     0                        NaN                      NaN                      NaN                      NaN                      0.02602095091381781      0.11129652104357074      0.17278966063270218      0.057312909893966146     0.05764082572225467      0.11187343543828107      0.1352746024991238       0.03592273172312656      0.00492454752834156      0.00907614602060519      0.0025721240441540357    0.0025299557346946124    1.7311163469980258E-4    1.0136346492790556E-5
0.8250000000000001        0.48                     0                        NaN                      NaN                      NaN                      NaN                      0.026020950913817814     0.11129652104357077      0.1727896606327022       0.05731290989396615      0.05764082572225467      0.11187343543828109      0.1352746024991238       0.035922731723126565     0.004924547528341561     0.009076146020605191     0.002572124044154036     0.002529955734694613     1.731116346998026E-4     1.0136346492790556E-5
0.8750000000000001        0.48                     0                        NaN                      NaN                      NaN                      NaN                      9.23248296689368E-4      0.011646965710847767     0.04322503587375076      0.023783308536848662     0.029987716060500894     0.14681921457237243      0.20648757749027752      0.05989066269844688      -5.353393412767931E-4    -9.866527907253693E-4    -2.7961134247903756E-4   -2.7502729471781846E-4   -1.8818679161104033E-5   -1.1019055176649672E-6
0.925                     0.48                     0                        NaN                      NaN                      NaN                      NaN                      6.710416527805737E-4     0.010645588003060372     0.04192304183556113      0.023446369799511514     0.029709830148478288     0.14717038447061528      0.20720319619447802      0.060131516274765755     -5.902057075141697E-4    -0.0010877737879437775   -3.0826841209814375E-4   -3.032145502153167E-4    -2.074738558741195E-5    -1.2148386361339013E-6
0.9750000000000001        0.48                     0                        NaN                      NaN                      NaN                      NaN                      6.710416527805736E-4     0.010645588003060372     0.04192304183556112      0.02344636979951151      0.029709830148478285     0.14717038447061526      0.207203196194478        0.06013151627476575      -5.902057075141695E-4    -0.0010877737879437773   -3.0826841209814375E-4   -3.032145502153167E-4    -2.0747385587411948E-5   -1.214838636133901E-6
1.025                     0.48                     0                        NaN                      NaN                      NaN                      NaN                      6.710416527805735E-4     0.010645588003060369     0.041923041835561115     0.023446369799511504     0.029709830148478278     0.14717038447061523      0.20720319619447794      0.06013151627476573      -5.902057075141694E-4    -0.001087773787943777    -3.0826841209814364E-4   -3.032145502153166E-4    -2.0747385587411944E-5   -1.2148386361339008E-6
1.075                     0.48                     0                        NaN                      NaN                      NaN                      NaN                      6.710416527805733E-4     0.010645588003060367     0.04192304183556111      0.0234463697995115       0.029709830148478274     0.1471703844706152       0.2072031961944779       0.06013151627476572      -5.902057075141693E-4    -0.0010877737879437768   -3.082684120981436E-4    -3.0321455021531656E-4   -2.074738558741194E-5    -1.2148386361339006E-6
1.125                     0.48                     0                        NaN                      NaN                      NaN                      NaN                      5.040488767832012E-4     0.0079879107953194       0.031978401027307674     0.018239681980751907     0.025291854263908176     0.1373488564740138       0.19462200995912882      0.056436278374493276     -3.503063892394083E-4    -6.456292090675456E-4    -1.8296735351464667E-4   -1.7996772154321242E-4   -1.2314249842828027E-5   -7.210462834813881E-7
1.175                     0.48                     0                        NaN                      NaN                      NaN                      NaN                      2.72347629353918E-5      -5.30754797948881E-4     -0.0015376338641239374   -3.6024774909096586E-5   0.009238628358599727     0.09017813875903977      0.13239362632321316      0.0384103160987666       2.1808295231259123E-4    4.019361001286715E-4     1.1390622259947411E-4    1.1203880377922977E-4    7.666229146987962E-6     4.4888705163454244E-7
1.225                     0.48                     0                        NaN                      NaN                      NaN                      NaN                      3.936550493003638E-5     -1.0421065948319807E-4   -0.001077404573986831    -7.32658213517789E-4     0.006787284286813076     0.06209120542060648      0.09195055823561255      0.026883256836255528     -5.800830207026526E-5    -1.0691183062547498E-4   -3.0298156238574894E-5   -2.980143742834573E-5    -2.0391567765382524E-6   -1.194004775775785E-7
1.275                     0.48                     0                        NaN                      NaN                      NaN                      NaN                      -3.662101806490687E-9    5.0433726592159E-5       -5.0122624494654074E-5   -2.458448601277765E-4    0.005826036694502595     0.051179778074068        0.07551369812925333      0.022071082655089228     2.163315260358705E-6     3.9872350499051725E-6    1.1299576591843838E-6    1.111433308319506E-6     7.604890787751814E-8     4.453038765458009E-9
1.325                     0.48                     0                        NaN                      NaN                      NaN                      NaN                      7.020967282971174E-6     4.903933377252476E-5     -1.3519938986985755E-4   -2.8679853904926286E-4   0.005541524797084123     0.04947299572651128      0.07294325562756375      0.021302671646323032     4.203522975971536E-5     7.747289328556563E-5     2.1955341875785865E-5    2.1595398916549363E-5    1.4776594397419996E-6    8.652273089570415E-8
1.375                     0.48                     0                        NaN                      NaN                      NaN                      NaN                      7.020967282971172E-6     4.9039333772524745E-5    -1.3519938986985753E-4   -2.867985390492628E-4    0.005541524797084121     0.04947299572651127      0.07294325562756374      0.02130267164632303      4.203522975971535E-5     7.747289328556561E-5     2.1955341875785862E-5    2.159539891654936E-5     1.4776594397419992E-6    8.652273089570412E-8
1.425                     0.48                     0                        NaN                      NaN                      NaN                      NaN                      3.822763591604296E-6     2.9537345208929756E-5    -5.5042764228792424E-5   -1.269244760883862E-4    0.0042153993984037465    0.03800475614090186      0.05598450537356536      0.016344315379047306     4.718185361761749E-5     8.695822356347486E-5     2.464342573640241E-5     2.4239413276347402E-5    1.6585758165956181E-6    9.71160717570718E-8
1.475                     0.48                     0                        NaN                      NaN                      NaN                      NaN                      1.3843615719123873E-7    1.2118700164949256E-5    4.143679940001118E-5     4.09936210845085E-5      0.0025874351080894566    0.023534053508844358     0.03464343738527622      0.010117697612996055     2.267821964630241E-5     4.17968619027494E-5      1.184497235323344E-5     1.1650782699722667E-5    7.97201858933592E-7      4.667944685250733E-8
1.525                     0.48                     0                        NaN                      NaN                      NaN                      NaN                      1.384361571912387E-7     1.2118700164949258E-5    4.143679940001118E-5     4.0993621084508495E-5    0.0025874351080894566    0.023534053508844355     0.03464343738527623      0.010117697612996057     2.2678219646302403E-5    4.1796861902749385E-5    1.1844972353233436E-5    1.1650782699722663E-5    7.972018589335918E-7     4.667944685250731E-8
1.575                     0.48                     0                        NaN                      NaN                      NaN                      NaN                      1.4117853026243784E-8    1.2286224704271594E-5    3.9570254880046934E-5    3.0078568460033503E-5    0.0021198249663677894    0.01889796206341915      0.02774819453391937      0.008055727427445245     -1.2646693962118978E-5   -2.3308422952131127E-5   -6.6054662875543135E-6   -6.4971719842448055E-6   -4.4456788508512456E-7   -2.6030900894664364E-8
1.625                     0.48                     0                        NaN                      NaN                      NaN                      NaN                      -2.2853461535606022E-8   6.128804384347616E-6     2.271016874193735E-5     2.041545323347031E-5     0.0010704669268211389    0.009310599314012711     0.013019511354181567     0.003428807598385267     7.557026026991874E-6     1.3927916292750163E-5    3.94708347240598E-6      3.88237612321401E-6      2.656502755030253E-7     1.5555371103228102E-8
1.675                     0.48                     0                        NaN                      NaN                      NaN                      NaN                      -3.9234037028383135E-8   4.5297221211585105E-6    1.4319587388879645E-5    1.1993912930254744E-5    2.8673981156403824E-4    0.00231814912532695      0.0026937041471482084    5.000806303212353E-4     2.242114599879845E-6     4.132327802894516E-6     1.1710757721147472E-6    1.1518762750650038E-6    7.881649528207125E-8     4.61515645679501E-9
1.725                     0.48                     0                        NaN                      NaN                      NaN                      NaN                      -4.8552339838086025E-8   2.5392386205799737E-6    1.0593591175807582E-5    8.647985142099475E-6     1.0035250221320882E-4    6.786482485686892E-4     5.78641555509785E-4      5.320348189330364E-5     8.457638660823367E-8     1.558910097657606E-7     4.417786610113872E-8     4.3453628944556735E-8    2.9737778166157707E-9    1.7398467734924983E-10
0.025                     0.62                     0                        NaN                      NaN                      NaN                      NaN                      0.002231905746065696     0.02168946940029847      0.09423847570107732      0.05844796506356474      0.19000198680296232      0.9144823803380642       1.285130509034834        0.37031422921587287      -1.3987307060999027E-5   -2.5812065675158836E-5   -7.314983440959097E-6    -7.195075364276334E-6    -4.92312440111097E-7     -2.8846383589325236E-8
0.07500000000000001       0.62                     0                        NaN                      NaN                      NaN                      NaN                      0.0027588342705349204    0.02581442805082171      0.1070906288699528       0.06531821329551374      0.19116967326936618      0.90707260129892         1.2729154001644762       0.3668046811741461       4.462346764166702E-5     8.238389243899723E-5     2.334709561732632E-5     2.296441605005977E-5     1.5712983090115813E-6    9.208981606907448E-8
0.125                     0.62                     0                        NaN                      NaN                      NaN                      NaN                      0.0038642445985622165    0.03404221420957129      0.13098341359199472      0.07765913090251889      0.1920633817005084       0.8900439574461781       1.252047436383731        0.36201998202505786      8.339011722831963E-6     1.5364578071095743E-5    4.354225761307145E-6     4.28284098468026E-6      2.930539975939054E-7     1.715720962918957E-8
0.17500000000000002       0.62                     0                        NaN                      NaN                      NaN                      NaN                      0.005559916798567866     0.0464955249401941       0.1666173957834999       0.09586808019326472      0.19257932360942887      0.8623933197202153       1.2221774172303401       0.356072428323436        -1.5825199408551146E-4   -2.920928184441446E-4    -8.2777334373996E-5      -8.142048982409618E-5    -5.571066241808051E-6    -3.2646126912183857E-7
0.225                     0.62                     0                        NaN                      NaN                      NaN                      NaN                      0.010095137094299118     0.07498515246450975      0.2257173556184478       0.12234151930040718      0.1933614759546078       0.8190595162039013       1.1709729019894173       0.3439699420404451       5.583510944698879E-4     0.0010274828505829922    2.9118224127479167E-4    2.8640762047894527E-4    1.9597788315095414E-5    1.1465833449166954E-6
0.275                     0.62                     0                        NaN                      NaN                      NaN                      NaN                      0.01597748743909123      0.11145670872835894      0.2979342901544906       0.15391693878472873      0.1942873343387843       0.767001365270535        1.1081086779063203       0.3286310501728995       0.002253176705324035     0.004149624828701109     0.0011759780193457922    0.001156696917342501     7.914752156354068E-5     4.63255672858294E-6
0.32500000000000007       0.62                     0                        NaN                      NaN                      NaN                      NaN                      0.029517158794515292     0.17634461083165034      0.38940477102182186      0.18574560610401442      0.19781364759247644      0.7174985223979491       1.0051832383819486       0.29402073493487113      -0.005066155272362161    -0.009326827263476526    -0.002643164981027939    -0.0025998262955133624   -1.778952054177198E-4    -1.0410299271770677E-5
0.37500000000000006       0.62                     0                        NaN                      NaN                      NaN                      NaN                      0.05267179731319523      0.2640879732398492       0.48838137097694273      0.20835887129451447      0.20230626436565793      0.644016641191108        0.8676897763268535       0.248266392147923        -0.0033211380380161384   -0.006107269399083032    -0.0017307618590125429   -0.001702379539909185    -1.1648851247753167E-4   -6.8126649988506755E-6
0.42500000000000004       0.62                     0                        NaN                      NaN                      NaN                      NaN                      0.09133874123826258      0.3931395981786512       0.6092762344630727       0.22149578214506818      0.20896439235944095      0.5310737691418443       0.6709842096621355       0.18343451920497425      0.011516748506072597     0.021230002257541573     0.006016452502876869     0.005917818954814064     4.049243045846682E-4     2.371234021785935E-5
0.47500000000000003       0.62                     5724715.219824497        1073.1500000000003       1073.1500000000003       1073.1500000000003       1073.1500000000003       0.12924025645950626      0.521516021495325        0.7191877512598427       0.22706359569217097      0.21334440286353418      0.4153709487390747       0.4777931187297985       0.12115388208687747      0.02603079767807116      0.047973609303704555     0.013595426141478939     0.013372536685795681     9.150133077817977E-4     5.357618865173242E-5
0.525                     0.62                     4753239.18193039         1073.1499999999999       1073.1499999999999       1073.1499999999999       1073.1499999999999       0.14516749361116882      0.5786279712936695       0.7562400825525946       0.22040692555884867      0.21120451867649373      0.3533064243724634       0.38467229049363244      0.0930993126408779       0.030575763899589527     0.05635190204442858      0.01596978295127701      0.015707968410957267     0.0010748142303923678    6.29341743225698E-5
0.5750000000000001        0.62                     3975182.080758469        1073.15                  1073.15                  1073.15                  1073.15                  0.1536926501671026       0.6090838886955827       0.7718590285463837       0.2122998001914514       0.20733234192865976      0.30250062997602495      0.3110503037283702       0.07138857045274496      0.03340316923830055      0.0615641957148081       0.01744691504024127      0.017160884577728117     0.0011742293514169022    6.875606500294548E-5
0.6250000000000001        0.62                     4303422.031655484        1073.1500000000005       1073.1500000000005       1073.1500000000005       1073.1500000000005       0.13306282827505977      0.5350138133583935       0.7074098063587235       0.20365069815034584      0.20044712953873983      0.318278502681623        0.34616330333029854      0.08400254386349239      0.028179783459181193     0.05193706439342017      0.014718645131390807     0.014477342771028131     9.906086806588071E-4     5.8004246263009383E-5
0.675                     0.62                     4631661.9825524995       1073.15                  1073.15                  1073.15                  1073.15                  0.11243300638301702      0.4609437380212044       0.6429605841710636       0.1950015961092403       0.1935619171488199       0.334056375387221        0.38127630293222686      0.09661651727423982      0.022956397680061847     0.04230993307203226      0.011990375222540359     0.011793800964328152     8.069880099007126E-4     4.725242752307331E-5
0.7250000000000001        0.62                     4954262.337063409        1073.15                  1073.15                  1073.15                  1073.15                  0.09203070577658846      0.3874869207200118       0.5791809908512642       0.18648020765193746      0.18676006348040056      0.349650076790773        0.41580902608734216      0.10899282366261401      0.01793172214202777      0.03304901430120674      0.009365887700433619     0.009212340088960078     6.303522081604553E-4     3.690958841039695E-5
0.775                     0.62                     0                        NaN                      NaN                      NaN                      NaN                      0.0742937825220638       0.32042108350067633      0.5061225313885116       0.17113149449554454      0.17420160840494353      0.36863795831806234      0.45572588611987774      0.12276241672671377      0.013815663944484143     0.025462843525725747     0.007216013483467217     0.007097711611639153     4.8565927167500296E-4    2.8437202728829633E-5
0.8250000000000001        0.62                     0                        NaN                      NaN                      NaN                      NaN                      0.04853532455225648      0.21814802202148914      0.3731468167527967       0.13671914845426683      0.1458204663608653       0.4045037663077282       0.5288137081886075       0.14736135919046303      0.008212032863327506     0.015135118148049647     0.004289199534868253     0.004218880884725008     2.8867594622337093E-4    1.6903077614610628E-5
0.8750000000000001        0.62                     0                        NaN                      NaN                      NaN                      NaN                      0.022776866582449148     0.11587496054230195      0.24017110211708176      0.1023068024129891       0.117439324316787        0.440369574297394        0.6019015302573371       0.17196030165421228      0.002608401782170866     0.004807392770373543     0.0013623855862692877    0.0013400501578108627    9.169262077173878E-5     5.368952500391618E-6
0.925                     0.62                     0                        NaN                      NaN                      NaN                      NaN                      0.002138945268238078     0.03393281175975493      0.13362969585085105      0.07473530373594293      0.09470008359827452      0.4691056005000861       0.6604601878698985       0.19166920812581578      -0.0018812806927014153   -0.0034672789490707897   -9.82605563562833E-4     -9.664963788113219E-4    -6.613229155987558E-5    -3.872298152676809E-6
0.9750000000000001        0.62                     0                        NaN                      NaN                      NaN                      NaN                      0.0021389452682380778    0.033932811759754926     0.13362969585085105      0.07473530373594292      0.0947000835982745       0.46910560050008604      0.6604601878698984       0.19166920812581575      -0.001881280692701415    -0.0034672789490707893   -9.826055635628328E-4    -9.664963788113217E-4    -6.613229155987556E-5    -3.872298152676808E-6