% Model:              eigen_1st.mph
% Version:            COMSOL 5.3.1.229
% Date:               Apr 5 2018, 16:18
% Dimension:          2
% Nodes:              1330
% Expressions:        61
% Description:        , , , , , , , , , , , , , , , , , , , , , , , , , , , , , , , , , , , , , , , , , , , , , , , , , , , , , , , , , , , , 
% Length unit:        m
% cpl1x                   cpl1y                    PdensityN (W/m^3) @ lambda=1 Tp221 (K) @ lambda=1     Tp231 (K) @ lambda=1     Tp241 (K) @ lambda=1     Tp31 (K) @ lambda=1      Tp12 (K) @ lambda=1      Tp212 (K) @ lambda=1     Tp222 (K) @ lambda=1     Tp232 (K) @ lambda=1     Tp242 (K) @ lambda=1     Tp32 (K) @ lambda=1      Tp13 (K) @ lambda=1      Tp213 (K) @ lambda=1     Tp223 (K) @ lambda=1     Tp233 (K) @ lambda=1     Tp243 (K) @ lambda=1     Tp33 (K) @ lambda=1      Tp14 (K) @ lambda=1      Tp214 (K) @ lambda=1     Tp224 (K) @ lambda=1     Tp234 (K) @ lambda=1     Tp244 (K) @ lambda=1     Tp34 (K) @ lambda=1      Tp15 (K) @ lambda=1      Tp215 (K) @ lambda=1     Tp225 (K) @ lambda=1     Tp235 (K) @ lambda=1     Tp245 (K) @ lambda=1     Tp35 (K) @ lambda=1      Tp16 (K) @ lambda=1      Tp216 (K) @ lambda=1     Tp226 (K) @ lambda=1     Tp236 (K) @ lambda=1     Tp246 (K) @ lambda=1     Tp36 (K) @ lambda=1      Tp17 (K) @ lambda=1      Tp217 (K) @ lambda=1     Tp227 (K) @ lambda=1     Tp237 (K) @ lambda=1     Tp247 (K) @ lambda=1     Tp37 (K) @ lambda=1      Tp18 (K) @ lambda=1      Tp218 (K) @ lambda=1     Tp228 (K) @ lambda=1     Tp238 (K) @ lambda=1     Tp248 (K) @ lambda=1     Tp38 (K) @ lambda=1      Flux1 (1/(m^2*s)) @ lambda=1 Flux2 (1/(m^2*s)) @ lambda=1 Flux3 (1/(m^2*s)) @ lambda=1 Flux4 (1/(m^2*s)) @ lambda=1 Flux5 (1/(m^2*s)) @ lambda=1 Flux6 (1/(m^2*s)) @ lambda=1 Flux7 (1/(m^2*s)) @ lambda=1 Flux8 (1/(m^2*s)) @ lambda=1 Conc1 (1/(m^2*s)) @ lambda=1 Conc2 (1/(m^2*s)) @ lambda=1 Conc3 (1/(m^2*s)) @ lambda=1 Conc4 (1/(m^2*s)) @ lambda=1 Conc5 (1/(m^2*s)) @ lambda=1 Conc6 (1/(m^2*s)) @ lambda=1
0.025                     0.48                     0                        NaN                      NaN                      NaN                      NaN                      NaN                      NaN                      NaN                      NaN                      NaN                      NaN                      NaN                      NaN                      NaN                      NaN                      NaN                      NaN                      NaN                      NaN                      NaN                      NaN                      NaN                      NaN                      NaN                      NaN                      NaN                      NaN                      NaN                      NaN                      NaN                      NaN                      NaN                      NaN                      NaN                      NaN                      NaN                      NaN                      NaN                      NaN                      NaN                      NaN                      NaN                      NaN                      NaN                      NaN                      NaN                      NaN                      0.0017117865854446887    0.016453566310568508     0.06727677486431352      0.041160164605213295     0.12918271764059427      0.6104763948818719       0.8570901697939551       0.24713686183021166      -2.9157561172122594E-5   -5.008233630965818E-5    -1.2693601724802572E-5   -1.1748392195091341E-5   -9.022481823598074E-7    -5.483661093598381E-8
0.07500000000000001       0.48                     0                        NaN                      NaN                      NaN                      NaN                      NaN                      NaN                      NaN                      NaN                      NaN                      NaN                      NaN                      NaN                      NaN                      NaN                      NaN                      NaN                      NaN                      NaN                      NaN                      NaN                      NaN                      NaN                      NaN                      NaN                      NaN                      NaN                      NaN                      NaN                      NaN                      NaN                      NaN                      NaN                      NaN                      NaN                      NaN                      NaN                      NaN                      NaN                      NaN                      NaN                      NaN                      NaN                      NaN                      NaN                      NaN                      NaN                      0.0022338649882488104    0.020476439982747528     0.07907490752429913      0.0475809675803498       0.1307401054277314       0.6071783637211378       0.8512812012729818       0.24546376079214333      7.837641531001751E-6     1.461040706339666E-5     3.7075670241459646E-6    3.4300072590553015E-6    2.6250003653787937E-7    1.5132577917020363E-8
0.125                     0.48                     0                        NaN                      NaN                      NaN                      NaN                      NaN                      NaN                      NaN                      NaN                      NaN                      NaN                      NaN                      NaN                      NaN                      NaN                      NaN                      NaN                      NaN                      NaN                      NaN                      NaN                      NaN                      NaN                      NaN                      NaN                      NaN                      NaN                      NaN                      NaN                      NaN                      NaN                      NaN                      NaN                      NaN                      NaN                      NaN                      NaN                      NaN                      NaN                      NaN                      NaN                      NaN                      NaN                      NaN                      NaN                      NaN                      NaN                      0.002794475482223133     0.02445789189040539      0.08969573300587415      0.05317207884975908      0.1313619419876259       0.6030797543310368       0.8453757809485503       0.24387977493468596      3.1429929908405E-5       5.877288125370464E-5     1.4912289525192194E-5    1.3798801315992255E-5    1.056194045036029E-6     6.16694656777248E-8
0.17500000000000002       0.48                     0                        NaN                      NaN                      NaN                      NaN                      NaN                      NaN                      NaN                      NaN                      NaN                      NaN                      NaN                      NaN                      NaN                      NaN                      NaN                      NaN                      NaN                      NaN                      NaN                      NaN                      NaN                      NaN                      NaN                      NaN                      NaN                      NaN                      NaN                      NaN                      NaN                      NaN                      NaN                      NaN                      NaN                      NaN                      NaN                      NaN                      NaN                      NaN                      NaN                      NaN                      NaN                      NaN                      NaN                      NaN                      NaN                      NaN                      0.004529781363618954     0.03659745468758939      0.12131351299469441      0.06982134871487533      0.12815262972488067      0.5864835999587515       0.8297013661763354       0.24076672228362078      2.712601148890761E-5     4.724462974934517E-5     1.1974769946342396E-5    1.1083215941460895E-5    8.50971007776521E-7      5.1285106977797106E-8
0.225                     0.48                     0                        NaN                      NaN                      NaN                      NaN                      NaN                      NaN                      NaN                      NaN                      NaN                      NaN                      NaN                      NaN                      NaN                      NaN                      NaN                      NaN                      NaN                      NaN                      NaN                      NaN                      NaN                      NaN                      NaN                      NaN                      NaN                      NaN                      NaN                      NaN                      NaN                      NaN                      NaN                      NaN                      NaN                      NaN                      NaN                      NaN                      NaN                      NaN                      NaN                      NaN                      NaN                      NaN                      NaN                      NaN                      NaN                      NaN                      0.007460501884641292     0.056967447991501274     0.16565090466386734      0.09146920179810228      0.12500656786325928      0.5636180765344748       0.803688759000889        0.2343871076880609       6.19840762508717E-4      0.0012866516404345558    3.269111463665477E-4     3.0243544084272765E-4    2.30633814637648E-5      1.2908991045301278E-6
0.275                     0.48                     0                        NaN                      NaN                      NaN                      NaN                      NaN                      NaN                      NaN                      NaN                      NaN                      NaN                      NaN                      NaN                      NaN                      NaN                      NaN                      NaN                      NaN                      NaN                      NaN                      NaN                      NaN                      NaN                      NaN                      NaN                      NaN                      NaN                      NaN                      NaN                      NaN                      NaN                      NaN                      NaN                      NaN                      NaN                      NaN                      NaN                      NaN                      NaN                      NaN                      NaN                      NaN                      NaN                      NaN                      NaN                      NaN                      NaN                      0.014309612205996509     0.09309318630768847      0.22909265293037606      0.11874454697719633      0.12435508916881896      0.530156053516226        0.7561477080935209       0.22098836483363093      9.745646555283317E-4     0.001999204030817196     5.078884223739346E-4     4.698727653742762E-4     3.584590187620011E-5     2.015754693548609E-6
0.32500000000000007       0.48                     0                        NaN                      NaN                      NaN                      NaN                      NaN                      NaN                      NaN                      NaN                      NaN                      NaN                      NaN                      NaN                      NaN                      NaN                      NaN                      NaN                      NaN                      NaN                      NaN                      NaN                      NaN                      NaN                      NaN                      NaN                      NaN                      NaN                      NaN                      NaN                      NaN                      NaN                      NaN                      NaN                      NaN                      NaN                      NaN                      NaN                      NaN                      NaN                      NaN                      NaN                      NaN                      NaN                      NaN                      NaN                      NaN                      NaN                      0.03293686067815198      0.16941514614313982      0.32827069272145387      0.15095043315161677      0.1336774227934775       0.47445291885722096      0.652022394970234        0.1880884530001108       -9.367013621476688E-4    -0.002206891244027659    -5.61496835648963E-4     -5.193401366429222E-4    -3.944564108613691E-5    -2.1035131111046823E-6
0.37500000000000006       0.48                     0                        NaN                      NaN                      NaN                      NaN                      NaN                      NaN                      NaN                      NaN                      NaN                      NaN                      NaN                      NaN                      NaN                      NaN                      NaN                      NaN                      NaN                      NaN                      NaN                      NaN                      NaN                      NaN                      NaN                      NaN                      NaN                      NaN                      NaN                      NaN                      NaN                      NaN                      NaN                      NaN                      NaN                      NaN                      NaN                      NaN                      NaN                      NaN                      NaN                      NaN                      NaN                      NaN                      NaN                      NaN                      NaN                      NaN                      0.039927077581167        0.19753766455065294      0.36393292911334413      0.162203285012705        0.1371962094155267       0.45392554214199626      0.6133402452200809       0.1758326148935575       -0.0019984521064307956   -0.004490165068961454    -0.0011418632414840401   -0.001056218618413975    -8.033931506125191E-5    -4.360901522932254E-6
0.42500000000000004       0.48                     0                        NaN                      NaN                      NaN                      NaN                      NaN                      NaN                      NaN                      NaN                      NaN                      NaN                      NaN                      NaN                      NaN                      NaN                      NaN                      NaN                      NaN                      NaN                      NaN                      NaN                      NaN                      NaN                      NaN                      NaN                      NaN                      NaN                      NaN                      NaN                      NaN                      NaN                      NaN                      NaN                      NaN                      NaN                      NaN                      NaN                      NaN                      NaN                      NaN                      NaN                      NaN                      NaN                      NaN                      NaN                      NaN                      NaN                      0.07848765687725621      0.3074216663082712       0.45229068033333086      0.16813255196939508      0.13653417741730706      0.36151815179567975      0.4742236672398694       0.13295560431510436      0.005465732095317424     0.010216865763172362     0.0025927376411467484    0.0023990908507315707    1.8360421227506794E-4    1.0713019068980745E-5
0.47500000000000003       0.48                     6364854.90900932         1073.1500000000005       1073.1500000000005       1073.1500000000005       1073.1500000000005       1073.1500000000005       1073.1500000000005       1073.1500000000005       1073.1500000000005       1073.1500000000005       1073.1500000000005       1073.1500000000005       1073.1500000000005       1073.1500000000005       1073.1500000000005       1073.1500000000005       1073.1500000000005       1073.1500000000005       1073.1500000000005       1073.1500000000005       1073.1500000000005       1073.1500000000005       1073.1500000000005       1073.1500000000005       1073.1500000000005       1073.1500000000005       1073.1500000000005       1073.1500000000005       1073.1500000000005       1073.1500000000005       1073.1500000000005       1073.1500000000005       1073.1500000000005       1073.1500000000005       1073.1500000000005       1073.1500000000005       1073.1500000000005       1073.1500000000005       1073.1500000000005       1073.1500000000005       1073.1500000000005       1073.1500000000005       1073.1500000000005       1073.1500000000005       1073.1500000000005       1073.1500000000005       1073.1500000000005       0.12119952025009473      0.4291353582602004       0.5501606881737491       0.17470014106629725      0.135800873593231        0.25916253621205365      0.3201303320240711       0.08546261922272577      0.013733481741057405     0.02650719912924635      0.006729391331595484     0.006226385685277473     4.759628874694867E-4     2.740974013925012E-5
0.525                     0.48                     6364854.909009317        1073.15                  1073.15                  1073.15                  1073.15                  1073.15                  1073.15                  1073.15                  1073.15                  1073.15                  1073.15                  1073.15                  1073.15                  1073.15                  1073.15                  1073.15                  1073.15                  1073.15                  1073.15                  1073.15                  1073.15                  1073.15                  1073.15                  1073.15                  1073.15                  1073.15                  1073.15                  1073.15                  1073.15                  1073.15                  1073.15                  1073.15                  1073.15                  1073.15                  1073.15                  1073.15                  1073.15                  1073.15                  1073.15                  1073.15                  1073.15                  1073.15                  1073.15                  1073.15                  1073.15                  1073.15                  1073.15                  0.12119952025009467      0.42913535826020016      0.5501606881737487       0.17470014106629717      0.13580087359323095      0.25916253621205354      0.320130332024071        0.08546261922272573      0.013733481741057398     0.026507199129246335     0.006729391331595481     0.00622638568527747      4.759628874694865E-4     2.740974013925011E-5
0.5750000000000001        0.48                     3208836.9177993312       1073.1499999999999       1073.1499999999999       1073.1499999999999       1073.1499999999999       1073.1499999999999       1073.1499999999999       1073.1499999999999       1073.1499999999999       1073.1499999999999       1073.1499999999999       1073.1499999999999       1073.1499999999999       1073.1499999999999       1073.1499999999999       1073.1499999999999       1073.1499999999999       1073.1499999999999       1073.1499999999999       1073.1499999999999       1073.1499999999999       1073.1499999999999       1073.1499999999999       1073.1499999999999       1073.1499999999999       1073.1499999999999       1073.1499999999999       1073.1499999999999       1073.1499999999999       1073.1499999999999       1073.1499999999999       1073.1499999999999       1073.1499999999999       1073.1499999999999       1073.1499999999999       1073.1499999999999       1073.1499999999999       1073.1499999999999       1073.1499999999999       1073.1499999999999       1073.1499999999999       1073.1499999999999       1073.1499999999999       1073.1499999999999       1073.1499999999999       1073.1499999999999       1073.1499999999999       0.15468032429259054      0.5504548584793502       0.666531592686116        0.17081493983704532      0.11703216095634601      0.12604436144040365      0.14170633788915132      0.035010297461417275     0.012910635110868127     0.024656403582444267     0.006258758675479556     0.005791048069744705     4.428433687117734E-4     2.5610227754615047E-5
0.6250000000000001        0.48                     2615108.2455875473       1073.1500000000005       1073.1500000000005       1073.1500000000005       1073.1500000000005       1073.1500000000005       1073.1500000000005       1073.1500000000005       1073.1500000000005       1073.1500000000005       1073.1500000000005       1073.1500000000005       1073.1500000000005       1073.1500000000005       1073.1500000000005       1073.1500000000005       1073.1500000000005       1073.1500000000005       1073.1500000000005       1073.1500000000005       1073.1500000000005       1073.1500000000005       1073.1500000000005       1073.1500000000005       1073.1500000000005       1073.1500000000005       1073.1500000000005       1073.1500000000005       1073.1500000000005       1073.1500000000005       1073.1500000000005       1073.1500000000005       1073.1500000000005       1073.1500000000005       1073.1500000000005       1073.1500000000005       1073.1500000000005       1073.1500000000005       1073.1500000000005       1073.1500000000005       1073.1500000000005       1073.1500000000005       1073.1500000000005       1073.1500000000005       1073.1500000000005       1073.1500000000005       1073.1500000000005       0.15176890481551572      0.5436217263707263       0.6584422514832997       0.16561797710920892      0.1168700188534714       0.10770751324138715      0.1046480917134095       0.023669022658924618     0.013085943510353994     0.02503005656115101      0.00635372169865703      0.0058788972379243964    4.495373981571503E-4     2.5981177077945532E-5
0.675                     0.48                     2502970.616568809        1073.1500000000005       1073.1500000000005       1073.1500000000005       1073.1500000000005       1073.1500000000005       1073.1500000000005       1073.1500000000005       1073.1500000000005       1073.1500000000005       1073.1500000000005       1073.1500000000005       1073.1500000000005       1073.1500000000005       1073.1500000000005       1073.1500000000005       1073.1500000000005       1073.1500000000005       1073.1500000000005       1073.1500000000005       1073.1500000000005       1073.1500000000005       1073.1500000000005       1073.1500000000005       1073.1500000000005       1073.1500000000005       1073.1500000000005       1073.1500000000005       1073.1500000000005       1073.1500000000005       1073.1500000000005       1073.1500000000005       1073.1500000000005       1073.1500000000005       1073.1500000000005       1073.1500000000005       1073.1500000000005       1073.1500000000005       1073.1500000000005       1073.1500000000005       1073.1500000000005       1073.1500000000005       1073.1500000000005       1073.1500000000005       1073.1500000000005       1073.1500000000005       1073.1500000000005       0.1511911516256166       0.5422414002172283       0.6568236805910491       0.1646229100000309       0.11684959009226299      0.10426452500472082      0.09763832654328922      0.0215213958380181       0.01312005306154549      0.025102812999009128     0.0063722127222328746    0.005896003042611315     4.5084081537256535E-4    2.605338549626051E-5
0.7250000000000001        0.48                     2502970.616568811        1073.1500000000003       1073.1500000000003       1073.1500000000003       1073.1500000000003       1073.1500000000003       1073.1500000000003       1073.1500000000003       1073.1500000000003       1073.1500000000003       1073.1500000000003       1073.1500000000003       1073.1500000000003       1073.1500000000003       1073.1500000000003       1073.1500000000003       1073.1500000000003       1073.1500000000003       1073.1500000000003       1073.1500000000003       1073.1500000000003       1073.1500000000003       1073.1500000000003       1073.1500000000003       1073.1500000000003       1073.1500000000003       1073.1500000000003       1073.1500000000003       1073.1500000000003       1073.1500000000003       1073.1500000000003       1073.1500000000003       1073.1500000000003       1073.1500000000003       1073.1500000000003       1073.1500000000003       1073.1500000000003       1073.1500000000003       1073.1500000000003       1073.1500000000003       1073.1500000000003       1073.1500000000003       1073.1500000000003       1073.1500000000003       1073.1500000000003       1073.1500000000003       1073.1500000000003       0.1511911516256167       0.5422414002172287       0.6568236805910495       0.16462291000003101      0.11684959009226306      0.10426452500472089      0.09763832654328927      0.021521395838018112     0.013120053061545497     0.02510281299900914      0.006372212722232878     0.0058960030426113185    4.508408153725656E-4     2.6053385496260526E-5
0.775                     0.48                     2486195.1385194324       NaN                      NaN                      NaN                      NaN                      NaN                      NaN                      NaN                      NaN                      NaN                      NaN                      NaN                      NaN                      NaN                      NaN                      NaN                      NaN                      NaN                      NaN                      NaN                      NaN                      NaN                      NaN                      NaN                      NaN                      NaN                      NaN                      NaN                      NaN                      NaN                      NaN                      NaN                      NaN                      NaN                      NaN                      NaN                      NaN                      NaN                      NaN                      NaN                      NaN                      NaN                      NaN                      NaN                      NaN                      NaN                      NaN                      0.15119115162561672      0.5422414002172288       0.6568236805910497       0.16462291000003104      0.11684959009226309      0.1042645250047209       0.09763832654328929      0.021521395838018115     0.013120053061545501     0.02510281299900915      0.00637221272223288      0.005896003042611319     4.508408153725657E-4     2.605338549626053E-5
0.8250000000000001        0.48                     2486195.138519433        NaN                      NaN                      NaN                      NaN                      NaN                      NaN                      NaN                      NaN                      NaN                      NaN                      NaN                      NaN                      NaN                      NaN                      NaN                      NaN                      NaN                      NaN                      NaN                      NaN                      NaN                      NaN                      NaN                      NaN                      NaN                      NaN                      NaN                      NaN                      NaN                      NaN                      NaN                      NaN                      NaN                      NaN                      NaN                      NaN                      NaN                      NaN                      NaN                      NaN                      NaN                      NaN                      NaN                      NaN                      NaN                      NaN                      0.15119115162561675      0.5422414002172289       0.6568236805910498       0.16462291000003107      0.1168495900922631       0.10426452500472091      0.09763832654328929      0.02152139583801812      0.013120053061545501     0.02510281299900915      0.00637221272223288      0.00589600304261132      4.508408153725658E-4     2.6053385496260533E-5