% Model:              eigen_1st.mph
% Version:            COMSOL 5.3.1.180
% Date:               Apr 4 2018, 13:37
% Dimension:          2
% Nodes:              1330
% Expressions:        14
% Description:        , , , , , , , , , , , , , 
% Length unit:        m
% cpl1x                   cpl1y                    PdensityN (W/m^3) @ lambda=1 Flux2 (1/(m^2*s)) @ lambda=1 Flux3 (1/(m^2*s)) @ lambda=1 Flux4 (1/(m^2*s)) @ lambda=1 Flux5 (1/(m^2*s)) @ lambda=1 Flux6 (1/(m^2*s)) @ lambda=1 Flux7 (1/(m^2*s)) @ lambda=1 Flux8 (1/(m^2*s)) @ lambda=1 Conc1 (1/(m^2*s)) @ lambda=1 Conc2 (1/(m^2*s)) @ lambda=1 Conc3 (1/(m^2*s)) @ lambda=1 Conc4 (1/(m^2*s)) @ lambda=1 Conc5 (1/(m^2*s)) @ lambda=1 Conc6 (1/(m^2*s)) @ lambda=1
0.025                     0.48                     0                        0.016113361055813652     0.0663368552208236       0.0406602505256381       0.12904158962865425      0.6105377198548888       0.8572247007301311       0.24717416040418164      -2.261816521131422E-5    -3.932919943618708E-5    -9.969119129697235E-6    -9.227300415230174E-6    -7.086655444888708E-7    -4.2486966512101956E-8
0.07500000000000001       0.48                     0                        0.020370180158445127     0.0789461174498432       0.04753874722200797      0.13080951715683606      0.6069283450141475       0.8506742496341015       0.24525994967611325      1.5130284844979723E-5    2.5223664736497474E-5    6.39201784075724E-6      5.914565841429613E-6     4.5443762151798864E-7    2.8371089781060885E-8
0.125                     0.48                     0                        0.022926699830545048     0.08565629327278229      0.05105098892810275      0.13089916707891935      0.6040885403768286       0.8470661711191646       0.24435563320493198      3.281552025484034E-5     5.7054424191944E-5       1.446472297287681E-5     1.3385077328722491E-5    1.0268040354133118E-6    6.184197247200175E-8
0.17500000000000002       0.48                     0                        0.03675956291900908      0.12114927755478688      0.06956967139992781      0.12854846023093375      0.5866730946500427       0.8291299401479373       0.24047621537660854      -2.3641809696173343E-5   -5.072821722483861E-5    -1.289076678408107E-5    -1.192686822091514E-5    -9.091088246786948E-7    -5.030568082976547E-8
0.225                     0.48                     0                        0.056962320315319594     0.1654675103679996       0.09129652966200703      0.1253438122861008       0.5638588561497544       0.8033852218732632       0.23420526235244363      6.018434303389872E-4     0.0012611013010769372    3.204555865742951E-4     2.9645662024637825E-4    2.259990919972109E-5     1.2600904934245875E-6
0.275                     0.48                     0                        0.09384622822941605      0.23014703086702573      0.1190963126702599       0.12448298258091486      0.5295462567226799       0.754949569829778        0.22059949215150865      9.84947347526074E-4      0.00202656392340427      5.148541791866502E-4     4.763148541193376E-4     3.633372195790735E-5     2.040357430760369E-6
0.32500000000000007       0.48                     0                        0.1704192221697972       0.3297637817563747       0.15152224072655568      0.13369114817115607      0.47339521370583104      0.6503549287226378       0.18758643627485866      -9.554246189767776E-4    -0.0022381322526243796   -5.694137621007843E-4    -5.266673884730752E-4    -4.000899968779358E-5    -2.138544973019676E-6
0.37500000000000006       0.48                     0                        0.19870794591365398      0.36565089721815447      0.1628658146099897       0.13718086040613653      0.4526677251354522       0.6114161911190654       0.17526125661898564      -0.0020292838478587283   -0.004548558723341418    -0.0011566841106216536   -0.0010699321601970557   -8.138841244037566E-5    -4.422152342557332E-6
0.42500000000000004       0.48                     0                        0.3076162492369655       0.4527970865345104       0.16855482388493453      0.1365962408646726       0.3611230917161158       0.47354552188669863      0.1327392028267282       0.005498168940201248     0.01027831729013955      0.00260833481332689      0.002413523224467513     1.847081792129722E-4     1.0776917414974538E-5
0.47500000000000003       0.48                     6373262.459647597        0.4282492028032182       0.549325100363421        0.17485629007952813      0.1359486834255489       0.2597231141613219       0.3208322251761405       0.0856393878067917       0.01383599842560314      0.026701397910145776     0.006778681234760222     0.006271994055850004     4.7945170937120516E-4    2.7612260730052355E-5
0.525                     0.48                     6373262.459647594        0.42824920280321793      0.5493251003634206       0.17485629007952805      0.1359486834255488       0.2597231141613217       0.32083222517614035      0.08563938780679166      0.013835998425603131     0.026701397910145763     0.006778681234760217     0.00627199405585         4.794517093712049E-4     2.7612260730052338E-5
0.5750000000000001        0.48                     3356466.935731523        0.5432816417079781       0.6615208465992249       0.17142640864944053      0.1176735817614081       0.1322943658252346       0.15014866215125972      0.037457419597484706     0.01269432177294477      0.024257036920827826     0.006157424780512797     0.00569728026888669      4.3566459952855895E-4    2.518920494320487E-5
0.6250000000000001        0.48                     2630699.0621400233       0.5413567078298649       0.6559002650237032       0.16516079264919187      0.11666116952833924      0.10835692556633637      0.10581288664670095      0.024022046391496375     0.013090713597437464     0.025038235325582737     0.0063557943383255695    0.0058808161913371714    4.496847805007148E-4     2.5989923027827197E-5
0.675                     0.48                     2512919.7016208097       0.5399615139467215       0.653795101081115        0.16394496603930908      0.11662067376360942      0.10471809322819085      0.09849821837629942      0.021774264519430632     0.013179589929136558     0.02521510110370358      0.006400710762273213     0.005922373103593357     4.528582730064362E-4     2.6170483084777186E-5
0.7250000000000001        0.48                     2512919.701620811        0.5399615139467219       0.6537951010811156       0.1639449660393092       0.1166206737636095       0.10471809322819094      0.09849821837629949      0.021774264519430646     0.013179589929136567     0.0252151011037036       0.006400710762273218     0.005922373103593361     4.528582730064365E-4     2.6170483084777203E-5
0.775                     0.48                     2496066.4917262592       0.5399615139467218       0.6537951010811154       0.16394496603930914      0.11662067376360946      0.10471809322819088      0.09849821837629946      0.02177426451943064      0.013179589929136563     0.02521510110370359      0.006400710762273216     0.0059223731035933595    4.5285827300643635E-4    2.6170483084777196E-5
0.8250000000000001        0.48                     2496066.4917262597       0.5399615139467219       0.6537951010811155       0.16394496603930916      0.11662067376360948      0.10471809322819091      0.09849821837629946      0.021774264519430642     0.013179589929136563     0.025215101103703598     0.006400710762273216     0.00592237310359336      4.5285827300643646E-4    2.61704830847772E-5
0.8750000000000001        0.48                     6430385.619669681        0.3222286823062038       0.41002749746057293      0.15807286286091737      0.10273791431299396      0.27370977420581477      0.32914172477019116      0.08688042859345424      0.010613096070232182     0.0202992605956491       0.005152836866386691     0.004767756643447702     3.6457342966879927E-4    2.107085123431477E-5
0.925                     0.48                     0                        0.32004068655318463      0.40757787845995297      0.1580138541357802       0.1025984065571389       0.2754079704653713       0.33145945980651503      0.08753467999603791      0.010587305390796642     0.020249861347620662     0.005140296990044058     0.004756153910446296     3.6368625587501123E-4    2.1019605068329126E-5
0.9750000000000001        0.48                     0                        0.32004068655318463      0.4075778784599529       0.15801385413578017      0.10259840655713888      0.2754079704653713       0.331459459806515        0.0875346799960379       0.01058730539079664      0.02024986134762066      0.005140296990044057     0.004756153910446296     3.636862558750112E-4     2.1019605068329126E-5
1.025                     0.48                     0                        0.3200406865531845       0.4075778784599528       0.15801385413578012      0.10259840655713885      0.2754079704653712       0.3314594598065149       0.08753467999603787      0.010587305390796636     0.020249861347620655     0.005140296990044056     0.004756153910446295     3.6368625587501107E-4    2.101960506832912E-5
1.075                     0.48                     0                        0.32004068655318446      0.40757787845995275      0.15801385413578012      0.10259840655713884      0.2754079704653712       0.33145945980651487      0.08753467999603785      0.010587305390796636     0.020249861347620652     0.005140296990044055     0.004756153910446294     3.63686255875011E-4      2.1019605068329116E-5
1.125                     0.48                     0                        0.2539338619952875       0.3382889414695904       0.1386450690857191       0.09248663948463917      0.29568441806712326      0.3730415386337068       0.10141104558623645      0.007044668209819182     0.013474032205962841     0.0034202965020336384    0.003164691872993247     2.419928176035362E-4     1.3986191687602665E-5
1.175                     0.48                     0                        0.013578006609458914     0.06427275671735286      0.04892454418679591      0.05220704455819569      0.3487316635178541       0.4974755264561834       0.14394223830287217      -0.0024500777550542753   -0.004686111494887593    -0.001189538889144136    -0.0011006428865039533   -8.416230179775879E-5    -4.864294920093583E-6
1.225                     0.48                     0                        -0.0042054528446664255   0.00843981142169894      0.011015832474145674     0.03817439895937083      0.29303417522426817      0.4261151640860774       0.12370526711501083      5.490805505292023E-4     0.001050202551638199     2.6658728208458875E-4    2.4666438544660384E-4    1.8861376325473934E-5    1.0899811757211329E-6
1.275                     0.48                     0                        0.0022851777795680995    0.006047179088166223     0.004628008585793335     0.031764987381019016     0.2538793936604775       0.37028581899006735      0.10754707907330815      2.8620268607259456E-4    5.474060351477696E-4     1.3895588411418558E-4    1.2857058819158596E-4    9.8312577564277E-6       5.679677923177019E-7
1.325                     0.48                     0                        0.0015762956377991365    0.004808334762688117     0.003932579107227191     0.030555559200977557     0.24887720157007182      0.36338600964243734      0.10561388011740441      -5.785536370564773E-5    -1.1064992890951009E-4   -2.808725843091641E-5    -2.5989289537672126E-5   -1.9873610695915957E-6   -1.1510910054153637E-7
1.375                     0.48                     0                        0.0015762956377991361    0.004808334762688115     0.00393257910722719      0.03055555920097755      0.24887720157007176      0.3633860096424372       0.1056138801174044       -5.785536370564772E-5    -1.1064992890951007E-4   -2.8087258430916404E-5   -2.598928953767212E-5    -1.9873610695915953E-6   -1.1510910054153635E-7
1.425                     0.48                     0                        0.011257421659053994     0.017294856646456358     0.008946586508947543     0.025440814922453175     0.19746619025983625      0.2870287980087061       0.0833867609430192       -3.675926553043911E-4    -7.030708980589964E-4    -1.7846962148623666E-4   -1.6513304724160086E-4   -1.262712682886554E-5    -7.298882718398965E-7
1.475                     0.48                     0                        0.024280621740330955     0.03223797276018905      0.01445570548950653      0.01900166097243277      0.13256585578413327      0.1907413856688021       0.05534234281900176      -7.557429764274503E-4    -0.0014454971801403248   -3.6692984071448614E-4   -3.395089154294515E-4    -2.596114382250455E-5    -1.5003031826504546E-6
1.525                     0.48                     0                        0.02428062174033096      0.03223797276018905      0.014455705489506532     0.01900166097243277      0.13256585578413327      0.1907413856688021       0.05534234281900176      -7.557429764274503E-4    -0.0014454971801403248   -3.669298407144862E-4    -3.395089154294515E-4    -2.596114382250455E-5    -1.5003031826504546E-6
1.575                     0.48                     0                        0.033344419537864656     0.035490769311998266     0.014120011857266173     0.016514913829921516     0.10832070436702168      0.1548941788739879       0.04471392971578142      -6.704602169907743E-4    -0.001282406993678052    -3.2553085394335666E-4   -3.0120310965588067E-4   -2.3031841096397368E-5   -1.3308926832284777E-6
1.625                     0.48                     0                        0.05833199222692194      0.039124927866602086     0.010743065924953674     0.010380824552301854     0.05224070455875376      0.07214305978158767      0.019735224201044857     0.0025691418513511008    0.00491408874538762      0.001247411908890786     0.001154189123473481     8.825688930377426E-5     5.100391113185894E-6
1.675                     0.48                     2651052.4726772327       0.06668011884846797      0.036168934661593766     0.006785208265448598     0.006886820889640498     0.021167996623878128     0.027559661272815512     0.006167323114887012     0.010747654869777827     0.02055735381274832      0.005218354255610827     0.004828378216747543     3.692086140329408E-4     2.1338440509388757E-5
1.725                     0.48                     243491.30672366187       0.04604734634139893      0.024785517508502348     0.003917333531829239     0.004015770675496481     0.008612960423760918     0.010394370119928885     0.002095430899159196     0.0014552415500923828    0.002783473481262077     7.06567630775135E-4      6.53764664922188E-4      4.999054841457614E-5     2.8893744839918355E-6
0.025                     0.62                     0                        0.04856279785778153      0.20410253062500444      0.12570715064951174      0.4051512860432929       1.914724257248266        2.6867261971985315       0.7744384613370316       -2.903283397011105E-5    -5.058636716391553E-5    -1.2823716453704912E-5   -1.1869288182585621E-5   -9.113518400415422E-7    -5.480382342002835E-8
0.07500000000000001       0.62                     0                        0.0578089012857915       0.23216519070198025      0.14116922431369025      0.40891835799153226      1.9087675035531952       2.676235418620942        0.7715255964528629       1.050028059350126E-4     1.777636841892025E-4     4.5048938082569286E-5    4.169165242773131E-5     3.2035636623949408E-6    1.9490657860290166E-7
0.125                     0.62                     0                        0.07630433744019317      0.28397388367753335      0.16910814518489725      0.40797532838392264      1.8851714337626466       2.6490560985439164       0.765190489450109        1.726914659816703E-5     3.440426426982258E-5     8.736307909850648E-6     8.081238599870831E-6     6.171616536958671E-7     3.468011801260648E-8
0.17500000000000002       0.62                     0                        0.10394061647581755      0.3603133309450079       0.21017664795615132      0.40195420932301945      1.845962968505075        2.6098410772042273       0.7570242187656081       -3.598768839323382E-4    -6.208698620671421E-4    -1.5737743336533233E-4   -1.4565080029098346E-4   -1.1184393431373763E-5   -6.768343970865223E-7
0.225                     0.62                     0                        0.18350417982356024      0.5196332721781891       0.2844297210350752       0.39750346375762163      1.768132093004191        2.5111142056835947       0.7309898917417095       9.463228229656986E-4     0.0020882544414109073    5.309462541380818E-4     4.91138819077982E-4      3.7378944192995646E-5    2.0427003573748386E-6
0.275                     0.62                     0                        0.28581204192581233      0.716994581561421        0.37441232438889155      0.39221743765226535      1.6676268278355342       2.378692821791871        0.6950599274334285       0.004454413283410513     0.009107768860444943     0.0023136757721747554    0.0021405111594973002    1.6332025883045046E-4    9.197199152109331E-6
0.32500000000000007       0.62                     0                        0.49574609240811196      0.9930333736212171       0.46502343831579523      0.4165887301123933       1.514009144504522        2.086577310297372        0.6030736209478099       -0.009278074516378219    -0.019591950594550003    -0.004978826797976094    -0.0046059163404448406   -3.510548262080656E-4    -1.952166674830224E-5
0.37500000000000006       0.62                     0                        0.7616030832706786       1.263155977096787        0.5213218989077175       0.4297068489535026       1.3066308430241986       1.7417180827677408       0.49555903670733964      -0.005277858613354768    -0.012561704983658325    -0.00319607307442798     -0.0029561148820005335   -2.2452254100126728E-4   -1.1952592417206156E-5
0.42500000000000004       0.62                     0                        1.119932526600136        1.547936731074163        0.5386341877631925       0.4283195595413397       1.0094572381796245       1.2981225641050085       0.3586809350123513       0.02375882408210351      0.04472057414482238      0.011349886153914449     0.010502014919128493     8.034942975334669E-4     4.673785275725731E-5
0.47500000000000003       0.62                     1.749055054055459E7      1.4526889439134618       1.8235108854011306       0.546160617133119        0.41369818359607         0.7084606096907758       0.8653232089761316       0.22832926187377733      0.04571734488154959      0.08788497307688826      0.022310347737153267     0.020642862110394164     0.0015782145981270176    9.103169744187581E-5
0.525                     0.62                     1.3628091447634203E7     1.6064898640538123       1.9777318599867408       0.5443669575797226       0.3911234161804027       0.5453477584758828       0.6459937888376188       0.166491287657221        0.04338227531799614      0.08310800788765048      0.02109682579999301      0.019520166064379098     0.001492555978630091     8.620931249242534E-5
0.5750000000000001        0.62                     1.0085642463551268E7     1.7352126078533594       2.1148846034993736       0.543385098889005        0.36974106459260414      0.3971828241194125       0.443673950714771        0.10960293932402693      0.039220449514770564     0.0749214951759426       0.01901806077017785      0.017596851154537855     0.001345625638513886     7.781087169184103E-5
0.6250000000000001        0.62                     9491992.647687798        1.7332917288288943       2.1072852709751664       0.5375571017969383       0.37085140181486276      0.37919992938726255      0.4064165002785059       0.09798951368800705      0.04026366899391191      0.07694909689127641      0.019532849064946654     0.018073155245238295     0.0013820270488683957    7.990128002518892E-5
0.675                     0.62                     8898342.831824329        1.7313708498044293       2.09968593845096         0.5317291047048716       0.3719617390371215       0.3612170346551127       0.369159049842241        0.08637608805198721      0.04130688847305324      0.07897669860661022      0.02004763735971546      0.01854945933593874      0.0014184284592229056    8.199168835853682E-5
0.7250000000000001        0.62                     8284220.851111582        1.724376509220416        2.0888744749824495       0.5254060450601398       0.3718227057838238       0.34226318096907926      0.33099776413810755      0.07464019280063224      0.04180296413055122      0.07996124264494364      0.020297662383804958     0.018780784862433782     0.0014360951884833167    8.299791932479781E-5
0.775                     0.62                     9311873.314970339        1.6461024027639044       1.999976074145056        0.5205512092093963       0.36694476921715735      0.3920189453888921       0.39343666797634685      0.09183931474580295      0.041125597609793826     0.07867926732266559      0.01997228151341451      0.018479714249879365     0.0014130651443349967    8.166121779575734E-5
0.8250000000000001        0.62                     1.334977253797638E7      1.4226372482827208       1.749790721802284        0.5145245092670778       0.35269651385813605      0.5654597251333473       0.6301524007303668       0.1586595499067531       0.03849153483509031      0.07363400588799625      0.018691554436949916     0.017294699827897483     0.0013224559973076685    7.642732628442918E-5
0.8750000000000001        0.62                     1.7387671760982424E7     1.1991720938015369       1.4996053694595117       0.5084978093247592       0.33844825849911464      0.7389005048778026       0.8668681334843867       0.22547978506770325      0.03585747206038679      0.0685887444533269       0.017410827360485315     0.0161096854059156       0.0012318468502803403    7.1193434773101E-5
0.925                     0.62                     0                        1.0201296883882758       1.2991544875910999       0.5036691600577993       0.32703242090088014      0.8778629058583708       1.0565270281332664       0.2790167924873707       0.033747035933164284     0.06454643304554085      0.01638469665576543      0.015160240589547567     0.001159249940601598     6.699999115529907E-5
0.9750000000000001        0.62                     0                        1.0201296883882756       1.2991544875910996       0.5036691600577992       0.3270324209008801       0.8778629058583707       1.0565270281332662       0.2790167924873707       0.03374703593316428      0.06454643304554084      0.01638469665576543      0.015160240589547564     0.0011592499406015977    6.699999115529907E-5
1.025                     0.62                     0                        0.9795325426626659       1.2566031611436048       0.49177451234988095      0.32082264022950385      0.890314962111127        1.0820631770106466       0.28753846691016427      0.03157145181078452      0.06038529953299709      0.0153284197747193       0.014182901007993892     0.0010845162609792963    6.268067148028232E-5
1.075                     0.62                     0                        0.6839144351138708       0.9467552057450007       0.4051607077947442       0.2756045940453526       0.9809876741636108       1.2680109295013673       0.34959113640175454      0.015729400612948655     0.03008498180745621      0.007636879715896352     0.00706616232187558      5.403245808689836E-4     3.122848228311781E-5
1.125                     0.62                     0                        0.38829632756507604      0.6369072503463972       0.3185469032396076       0.23038654786120133      1.071660386216095        1.4539586819920882       0.411643805893345        -1.1265058488720871E-4   -2.1533591808465397E-4   -5.466034292659922E-5    -5.0576364242728086E-5   -3.867099241329193E-6    -2.237069140466558E-7
1.175                     0.62                     0                        0.11142592184798449      0.33921521197772275      0.23087914477560675      0.18684386972786493      1.1495686704445336       1.619037908981081        0.46707382047011037      -0.013801380459671109    -0.026397103387499482    -0.006700733053223752    -0.006199977156487344    -4.740899440510405E-4    -2.7400772433253643E-5
1.225                     0.62                     0                        0.022108745096903394     0.16313175851574777      0.13266756283055664      0.16006168258470654      1.0997807881884538       1.5753470490152015       0.4562503643679998       -0.005948143710215058    -0.011376626116229556    -0.0028878823842850114   -0.002672066717422142    -2.043237476427702E-4    -1.1809222512137012E-5
1.275                     0.62                     0                        -0.043344133016176574    0.02716496816998701      0.054573566806291135     0.13753285844865315      1.048021407614643        1.5224253914130381       0.44228647402413007      2.8572832601101166E-4    5.465698704751221E-4     1.387435595024942E-4     1.283746740753371E-4     9.815628262270704E-6     5.672452167812207E-7
1.325                     0.62                     0                        -0.027994343617671787    0.02703009313104976      0.044596159119735426     0.1294055921409913       0.9895866863788789       1.4382489677024894       0.4176893164835956       0.001036556821424508     0.001982611232486369     5.032734568292221E-4     4.6566219429243174E-4    3.56068968111796E-5      2.0576935684133167E-6
1.375                     0.62                     0                        -0.0029148452422125964   0.03500707823204336      0.03520945912416583      0.11254727683168445      0.8599027660206677       1.249806154870754        0.36284951243889596      0.001267217661148805     0.002423730225958268     6.152485808780164E-4     5.692690716833377E-4     4.352959269593405E-5     2.5155384482319215E-6
1.425                     0.62                     0                        0.029990874923384855     0.04984396766344201      0.026586565974617817     0.08847045767470389      0.6713246779938129       0.9751569530322046       0.2830132303835099       0.001018159892224239     0.0019472972628936055    4.943089437070247E-4     4.57367539033507E-4      3.497325671745112E-5     2.0210735914344204E-6
1.475                     0.62                     0                        0.04111120537800063      0.06312096958445733      0.03094668025775027      0.07425098668481792      0.56378147980934         0.818083234723948        0.2376681709267788       -0.0011048640302611546   -0.002113279132528697    -5.364418977861888E-4    -4.963537186179698E-4    -3.79541333049728E-5     -2.1936232682441896E-6
1.525                     0.62                     0                        0.05698893739791262      0.08121230830519935      0.03762480813603847      0.0662030631997712       0.48460335706411545      0.7007204118194347       0.20350443552868172      -0.0017060698252782      -0.003263204305854365    -8.28343014575423E-4     -7.664402136066491E-4    -5.8606825892591717E-5   -3.386988878311985E-6
1.575                     0.62                     0                        0.11471723860186722      0.11199131271780684      0.04177790178570919      0.05024517469898645      0.32946092864318993      0.4708077538508074       0.13566526284082697      -0.0028405342695941842   -0.00543319683232597     -0.0013791816733982293   -0.0012761135963969014   -9.758020553404349E-5    -5.639757949582746E-6
1.625                     0.62                     0                        0.17853955832281984      0.12647954147687773      0.03598962899404644      0.03485650093229284      0.1856998297972111       0.25842828420939157      0.0716884264225987       0.006004270140417711     0.011484551673798193     0.0029152815622227536    0.002697416479001037     2.062619861963594E-4     1.1921026539267488E-5
1.675                     0.62                     8438209.751568157        0.21035904844658443      0.11589787946884146      0.021913859795574447     0.021593287631848514     0.06724696367910957      0.08758455524813125      0.019777738895589918     0.03315442478015363      0.06341545764501202      0.016097610957805642     0.01489461109529756      0.0011389363606886648    6.58255884640918E-5
1.725                     0.62                     603720.2371320728        0.11559032021659715      0.06306879609964033      0.010015391193947211     0.009973840296502102     0.02130398089250844      0.025690526093317075     0.005197284944575588     0.0034064477642397504    0.006515609147193921     0.0016539472366373894    0.0015303439199784202    1.1701920594367083E-4    6.763546720670962E-6
0.025                     0.76                     0                        0.08120914262968446      0.3412647344602063       0.21010151610412262      0.6660539811618473       3.1378126884272364       4.400968416121059        1.2683747065913917       -3.98193058681431E-5     -6.61040409423995E-5     -1.6749787209355355E-5   -1.550245604941224E-5    -1.192152369848257E-6    -7.285388835024768E-8
0.07500000000000001       0.76                     0                        0.0924792089248021       0.37589326026029574      0.22923800275495065      0.6710200707040304       3.12582131937552         4.3791835897092435       1.2619584455084967       3.0420029162532254E-4    5.133481723466924E-4     1.300885665295783E-4     1.2040038194462636E-4    9.252737502185399E-6     5.6447184112372E-7
0.125                     0.76                     0                        0.12226562106391652      0.4633504463659435       0.27741996033167554      0.6641373791362362       3.0799068929303344       4.333298165629637        1.2524840498398198       -2.1789314183646763E-4   -3.6667952363625726E-4   -9.292153528014248E-5    -8.59997638972066E-5     -6.608702380852815E-6    -4.031101125050135E-7