% Model:              eigen_1st.mph
% Version:            COMSOL 5.3.1.229
% Date:               Apr 7 2018, 15:19
% Dimension:          2
% Nodes:              1330
% Expressions:        61
% Description:        , , , , , , , , , , , , , , , , , , , , , , , , , , , , , , , , , , , , , , , , , , , , , , , , , , , , , , , , , , , , 
% Length unit:        m
% cpl1x                   cpl1y                    PdensityN (W/m^3) @ lambda=1 Tp221 (K) @ lambda=1     Tp231 (K) @ lambda=1     Tp241 (K) @ lambda=1     Tp31 (K) @ lambda=1      Tp12 (K) @ lambda=1      Tp212 (K) @ lambda=1     Tp222 (K) @ lambda=1     Tp232 (K) @ lambda=1     Tp242 (K) @ lambda=1     Tp32 (K) @ lambda=1      Tp13 (K) @ lambda=1      Tp213 (K) @ lambda=1     Tp223 (K) @ lambda=1     Tp233 (K) @ lambda=1     Tp243 (K) @ lambda=1     Tp33 (K) @ lambda=1      Tp14 (K) @ lambda=1      Tp214 (K) @ lambda=1     Tp224 (K) @ lambda=1     Tp234 (K) @ lambda=1     Tp244 (K) @ lambda=1     Tp34 (K) @ lambda=1      Tp15 (K) @ lambda=1      Tp215 (K) @ lambda=1     Tp225 (K) @ lambda=1     Tp235 (K) @ lambda=1     Tp245 (K) @ lambda=1     Tp35 (K) @ lambda=1      Tp16 (K) @ lambda=1      Tp216 (K) @ lambda=1     Tp226 (K) @ lambda=1     Tp236 (K) @ lambda=1     Tp246 (K) @ lambda=1     Tp36 (K) @ lambda=1      Tp17 (K) @ lambda=1      Tp217 (K) @ lambda=1     Tp227 (K) @ lambda=1     Tp237 (K) @ lambda=1     Tp247 (K) @ lambda=1     Tp37 (K) @ lambda=1      Tp18 (K) @ lambda=1      Tp218 (K) @ lambda=1     Tp228 (K) @ lambda=1     Tp238 (K) @ lambda=1     Tp248 (K) @ lambda=1     Tp38 (K) @ lambda=1      Flux1 (1/(m^2*s)) @ lambda=1 Flux2 (1/(m^2*s)) @ lambda=1 Flux3 (1/(m^2*s)) @ lambda=1 Flux4 (1/(m^2*s)) @ lambda=1 Flux5 (1/(m^2*s)) @ lambda=1 Flux6 (1/(m^2*s)) @ lambda=1 Flux7 (1/(m^2*s)) @ lambda=1 Flux8 (1/(m^2*s)) @ lambda=1 Conc1 (1/(m^2*s)) @ lambda=1 Conc2 (1/(m^2*s)) @ lambda=1 Conc3 (1/(m^2*s)) @ lambda=1 Conc4 (1/(m^2*s)) @ lambda=1 Conc5 (1/(m^2*s)) @ lambda=1 Conc6 (1/(m^2*s)) @ lambda=1
0.025                     0.48                     0                        NaN                      NaN                      NaN                      NaN                      NaN                      NaN                      NaN                      NaN                      NaN                      NaN                      NaN                      NaN                      NaN                      NaN                      NaN                      NaN                      NaN                      NaN                      NaN                      NaN                      NaN                      NaN                      NaN                      NaN                      NaN                      NaN                      NaN                      NaN                      NaN                      NaN                      NaN                      NaN                      NaN                      NaN                      NaN                      NaN                      NaN                      NaN                      NaN                      NaN                      NaN                      NaN                      NaN                      NaN                      NaN                      NaN                      -3.1584716652506375E-8   -1.787192549723066E-7    -3.9009356925528435E-7   -1.9045346353836488E-7   -2.1731580306314195E-7   -7.566609102356633E-7    -1.0202748426124739E-6   -2.9019485021834217E-7   1.1160716333697444E-6    1.9342589336992963E-6    4.903443461782182E-7     4.5377310021055486E-7    3.483986765115036E-8     2.0936202011656817E-9
0.07500000000000001       0.48                     0                        NaN                      NaN                      NaN                      NaN                      NaN                      NaN                      NaN                      NaN                      NaN                      NaN                      NaN                      NaN                      NaN                      NaN                      NaN                      NaN                      NaN                      NaN                      NaN                      NaN                      NaN                      NaN                      NaN                      NaN                      NaN                      NaN                      NaN                      NaN                      NaN                      NaN                      NaN                      NaN                      NaN                      NaN                      NaN                      NaN                      NaN                      NaN                      NaN                      NaN                      NaN                      NaN                      NaN                      NaN                      NaN                      NaN                      -6.966171936766978E-8    -3.7849898833051045E-7   -7.552722205998713E-7    -3.5126637424799433E-7   -3.095545070639503E-7    -9.143117658351914E-7    -1.2000985286537844E-6   -3.383093838177844E-7    -1.640640676207513E-6    -3.475882380011436E-6    -8.83220501671831E-7     -8.171188355757855E-7    -6.229900908029393E-8    -3.47993282321962E-9
0.125                     0.48                     0                        NaN                      NaN                      NaN                      NaN                      NaN                      NaN                      NaN                      NaN                      NaN                      NaN                      NaN                      NaN                      NaN                      NaN                      NaN                      NaN                      NaN                      NaN                      NaN                      NaN                      NaN                      NaN                      NaN                      NaN                      NaN                      NaN                      NaN                      NaN                      NaN                      NaN                      NaN                      NaN                      NaN                      NaN                      NaN                      NaN                      NaN                      NaN                      NaN                      NaN                      NaN                      NaN                      NaN                      NaN                      NaN                      NaN                      -1.4651306236781685E-7   -6.781427685925238E-7    -1.1623428116493647E-6   -5.059964447147655E-7    -3.7841883529362686E-7   -9.96870987056527E-7     -1.2826856116391825E-6   -3.5937523199987146E-7   -1.657977041182544E-5    -3.0766875274062684E-5   -7.80615738531297E-6     -7.223372308151136E-6    -5.531467857307861E-7    -3.244400517635252E-8
0.17500000000000002       0.48                     0                        NaN                      NaN                      NaN                      NaN                      NaN                      NaN                      NaN                      NaN                      NaN                      NaN                      NaN                      NaN                      NaN                      NaN                      NaN                      NaN                      NaN                      NaN                      NaN                      NaN                      NaN                      NaN                      NaN                      NaN                      NaN                      NaN                      NaN                      NaN                      NaN                      NaN                      NaN                      NaN                      NaN                      NaN                      NaN                      NaN                      NaN                      NaN                      NaN                      NaN                      NaN                      NaN                      NaN                      NaN                      NaN                      NaN                      -3.1202878253619456E-7   -1.3365942084322161E-6   -2.014182114325552E-6    -8.149962201681428E-7    -4.90709240970692E-7     -1.141834879366032E-6    -1.4385363861656262E-6   -4.017432089827126E-7    4.024935993389166E-5     7.62410048080938E-5      1.934868604799225E-5     1.7903458544469127E-5    1.3699382259876534E-6    7.965430970780612E-8
0.225                     0.48                     0                        NaN                      NaN                      NaN                      NaN                      NaN                      NaN                      NaN                      NaN                      NaN                      NaN                      NaN                      NaN                      NaN                      NaN                      NaN                      NaN                      NaN                      NaN                      NaN                      NaN                      NaN                      NaN                      NaN                      NaN                      NaN                      NaN                      NaN                      NaN                      NaN                      NaN                      NaN                      NaN                      NaN                      NaN                      NaN                      NaN                      NaN                      NaN                      NaN                      NaN                      NaN                      NaN                      NaN                      NaN                      NaN                      NaN                      -8.556908852230189E-7    -2.9873556925030395E-6   -3.2883526957373182E-6   -1.147642119096698E-6    -5.648641121799855E-7    -1.1774133911236998E-6   -1.4511047758641881E-6   -4.0408104901744893E-7   -2.3707226507821018E-4   -4.930169158543526E-4    -1.2526846175005954E-4   -1.1588894805055366E-4   -8.836992951396028E-6    -4.942403983166197E-7
0.275                     0.48                     0                        NaN                      NaN                      NaN                      NaN                      NaN                      NaN                      NaN                      NaN                      NaN                      NaN                      NaN                      NaN                      NaN                      NaN                      NaN                      NaN                      NaN                      NaN                      NaN                      NaN                      NaN                      NaN                      NaN                      NaN                      NaN                      NaN                      NaN                      NaN                      NaN                      NaN                      NaN                      NaN                      NaN                      NaN                      NaN                      NaN                      NaN                      NaN                      NaN                      NaN                      NaN                      NaN                      NaN                      NaN                      NaN                      NaN                      -1.9194101035404766E-6   -5.277614191996187E-6    -4.609403861861889E-6    -1.4278443133748468E-6   -6.099848638340773E-7    -1.139292328910967E-6    -1.36889354462398E-6     -3.793750580697437E-7    -4.2738651468973514E-4   -8.733438570050609E-4    -2.2185715486017693E-4   -2.052526216919682E-4    -1.566097094780688E-5    -8.82129705462347E-7
0.32500000000000007       0.48                     0                        NaN                      NaN                      NaN                      NaN                      NaN                      NaN                      NaN                      NaN                      NaN                      NaN                      NaN                      NaN                      NaN                      NaN                      NaN                      NaN                      NaN                      NaN                      NaN                      NaN                      NaN                      NaN                      NaN                      NaN                      NaN                      NaN                      NaN                      NaN                      NaN                      NaN                      NaN                      NaN                      NaN                      NaN                      NaN                      NaN                      NaN                      NaN                      NaN                      NaN                      NaN                      NaN                      NaN                      NaN                      NaN                      NaN                      -5.791189151283174E-6    -9.881034044488165E-6    -5.319930447994459E-6    -1.2953759291000013E-6   -5.099655336778076E-7    -8.318210266411625E-7    -9.6495678339369E-7      -2.638974201903976E-7    2.628629762223999E-4     5.949938545471369E-4     1.5132259049564092E-4    1.399707562854885E-4     1.0643801566451117E-5    5.759966495088963E-7
0.37500000000000006       0.48                     0                        NaN                      NaN                      NaN                      NaN                      NaN                      NaN                      NaN                      NaN                      NaN                      NaN                      NaN                      NaN                      NaN                      NaN                      NaN                      NaN                      NaN                      NaN                      NaN                      NaN                      NaN                      NaN                      NaN                      NaN                      NaN                      NaN                      NaN                      NaN                      NaN                      NaN                      NaN                      NaN                      NaN                      NaN                      NaN                      NaN                      NaN                      NaN                      NaN                      NaN                      NaN                      NaN                      NaN                      NaN                      NaN                      NaN                      -7.1914700144337795E-6   -1.1431747792423076E-5   -5.442887185261642E-6    -1.2067053713985533E-6   -4.5974220579225137E-7   -7.004732056057966E-7    -7.969846328991811E-7    -2.1623099762050827E-7   6.13114567908508E-4      0.0013323744637200876    3.3870602721156105E-4    3.1331997088972804E-4    2.3857059874393867E-5    1.3114656308633355E-6
0.42500000000000004       0.48                     0                        NaN                      NaN                      NaN                      NaN                      NaN                      NaN                      NaN                      NaN                      NaN                      NaN                      NaN                      NaN                      NaN                      NaN                      NaN                      NaN                      NaN                      NaN                      NaN                      NaN                      NaN                      NaN                      NaN                      NaN                      NaN                      NaN                      NaN                      NaN                      NaN                      NaN                      NaN                      NaN                      NaN                      NaN                      NaN                      NaN                      NaN                      NaN                      NaN                      NaN                      NaN                      NaN                      NaN                      NaN                      NaN                      NaN                      -1.6664489435564863E-5   -1.553779319560984E-5    -2.900734906690825E-6    -6.342884401154651E-7    -2.4185794672880264E-7   -3.6819338516599645E-7   -4.1894079321437354E-7   -1.1364075342034232E-7   1.0745809066915491E-4    2.711698772431384E-4     6.90388736604738E-5      6.384872759789689E-5     4.84017277333793E-6      2.5187952621437226E-7
0.47500000000000003       0.48                     -1.3660494167942304E7    1073.1500000000005       1073.1500000000005       1073.1500000000005       1073.1500000000005       1073.1500000000005       1073.1500000000005       1073.1500000000005       1073.1500000000005       1073.1500000000005       1073.1500000000005       1073.1500000000005       1073.1500000000005       1073.1500000000005       1073.1500000000005       1073.1500000000005       1073.1500000000005       1073.1500000000005       1073.1500000000005       1073.1500000000005       1073.1500000000005       1073.1500000000005       1073.1500000000005       1073.1500000000005       1073.1500000000005       1073.1500000000005       1073.1500000000005       1073.1500000000005       1073.1500000000005       1073.1500000000005       1073.1500000000005       1073.1500000000005       1073.1500000000005       1073.1500000000005       1073.1500000000005       1073.1500000000005       1073.1500000000005       1073.1500000000005       1073.1500000000005       1073.1500000000005       1073.1500000000005       1073.1500000000005       1073.1500000000005       1073.1500000000005       1073.1500000000005       1073.1500000000005       1073.1500000000005       -2.7157337795979215E-5   -2.0085879699107252E-5   -8.490426365172559E-8    -2.4729738443738297E-10  -5.171039797410011E-10   -1.4159364077266652E-10  -1.9820364963615662E-10  -6.036990964485181E-12   -4.526354235802198E-4    -9.042799250068602E-4    -2.2965961139533942E-4   -2.1247963295693544E-4   -1.622399945810417E-5    -9.217775546613557E-7
0.525                     0.48                     -1.3660494167942297E7    1073.15                  1073.15                  1073.15                  1073.15                  1073.15                  1073.15                  1073.15                  1073.15                  1073.15                  1073.15                  1073.15                  1073.15                  1073.15                  1073.15                  1073.15                  1073.15                  1073.15                  1073.15                  1073.15                  1073.15                  1073.15                  1073.15                  1073.15                  1073.15                  1073.15                  1073.15                  1073.15                  1073.15                  1073.15                  1073.15                  1073.15                  1073.15                  1073.15                  1073.15                  1073.15                  1073.15                  1073.15                  1073.15                  1073.15                  1073.15                  1073.15                  1073.15                  1073.15                  1073.15                  1073.15                  1073.15                  -2.7157337795979205E-5   -2.008587969910724E-5    -8.490426365172556E-8    -2.4729738443738287E-10  -5.171039797410008E-10   -1.4159364077266644E-10  -1.9820364963615654E-10  -6.036990964485179E-12   -4.526354235802196E-4    -9.042799250068598E-4    -2.296596113953393E-4    -2.1247963295693533E-4   -1.6223999458104163E-5   -9.217775546613554E-7
0.5750000000000001        0.48                     -4.880372353449123E7     1073.1499999999999       1073.1499999999999       1073.1499999999999       1073.1499999999999       1073.1499999999999       1073.1499999999999       1073.1499999999999       1073.1499999999999       1073.1499999999999       1073.1499999999999       1073.1499999999999       1073.1499999999999       1073.1499999999999       1073.1499999999999       1073.1499999999999       1073.1499999999999       1073.1499999999999       1073.1499999999999       1073.1499999999999       1073.1499999999999       1073.1499999999999       1073.1499999999999       1073.1499999999999       1073.1499999999999       1073.1499999999999       1073.1499999999999       1073.1499999999999       1073.1499999999999       1073.1499999999999       1073.1499999999999       1073.1499999999999       1073.1499999999999       1073.1499999999999       1073.1499999999999       1073.1499999999999       1073.1499999999999       1073.1499999999999       1073.1499999999999       1073.1499999999999       1073.1499999999999       1073.1499999999999       1073.1499999999999       1073.1499999999999       1073.1499999999999       1073.1499999999999       1073.1499999999999       -9.71259329895346E-5     -7.185286525391763E-5    -2.928772024423886E-7    1.8735627572330752E-10   6.114771415321367E-10    2.6361614428081666E-10   3.229507651561784E-10    1.8875583057564908E-11   -0.3962515294326271      -0.7579135676435682      -0.19239152657491698     -0.17801378716858335     -0.013612063486060925    -7.867194793405772E-4
0.6250000000000001        0.48                     -3.530956228332811E7     1073.1500000000005       1073.1500000000005       1073.1500000000005       1073.1500000000005       1073.1500000000005       1073.1500000000005       1073.1500000000005       1073.1500000000005       1073.1500000000005       1073.1500000000005       1073.1500000000005       1073.1500000000005       1073.1500000000005       1073.1500000000005       1073.1500000000005       1073.1500000000005       1073.1500000000005       1073.1500000000005       1073.1500000000005       1073.1500000000005       1073.1500000000005       1073.1500000000005       1073.1500000000005       1073.1500000000005       1073.1500000000005       1073.1500000000005       1073.1500000000005       1073.1500000000005       1073.1500000000005       1073.1500000000005       1073.1500000000005       1073.1500000000005       1073.1500000000005       1073.1500000000005       1073.1500000000005       1073.1500000000005       1073.1500000000005       1073.1500000000005       1073.1500000000005       1073.1500000000005       1073.1500000000005       1073.1500000000005       1073.1500000000005       1073.1500000000005       1073.1500000000005       1073.1500000000005       -7.021241959921426E-5    -5.1928657273052745E-5   -2.1093182979525283E-7   4.624887714429534E-10    -4.5581230579296933E-10  -4.5637298408948467E-10  -5.256406930066399E-10   -4.706166677281338E-11   -0.12868676130621848     -0.2461435269340465      -0.06248197470263528     -0.05781259112473804     -0.004420715451766782    -2.55497217851706E-4
0.675                     0.48                     -3.270007120984182E7     1073.1500000000005       1073.1500000000005       1073.1500000000005       1073.1500000000005       1073.1500000000005       1073.1500000000005       1073.1500000000005       1073.1500000000005       1073.1500000000005       1073.1500000000005       1073.1500000000005       1073.1500000000005       1073.1500000000005       1073.1500000000005       1073.1500000000005       1073.1500000000005       1073.1500000000005       1073.1500000000005       1073.1500000000005       1073.1500000000005       1073.1500000000005       1073.1500000000005       1073.1500000000005       1073.1500000000005       1073.1500000000005       1073.1500000000005       1073.1500000000005       1073.1500000000005       1073.1500000000005       1073.1500000000005       1073.1500000000005       1073.1500000000005       1073.1500000000005       1073.1500000000005       1073.1500000000005       1073.1500000000005       1073.1500000000005       1073.1500000000005       1073.1500000000005       1073.1500000000005       1073.1500000000005       1073.1500000000005       1073.1500000000005       1073.1500000000005       1073.1500000000005       1073.1500000000005       -6.500797403294548E-5    -4.8075798018709094E-5   -1.9508839037119818E-7   5.150382771245583E-10    -6.612639892802991E-10   -5.947670993114829E-10   -6.887791604946027E-10   -5.972897975004361E-11   -0.07711666789858586     -0.14750563876030845     -0.03744337767268574     -0.034645169884428284    -0.002649187046967825    -1.5311012570764338E-4
0.7250000000000001        0.48                     -3.2700071209841833E7    1073.1500000000003       1073.1500000000003       1073.1500000000003       1073.1500000000003       1073.1500000000003       1073.1500000000003       1073.1500000000003       1073.1500000000003       1073.1500000000003       1073.1500000000003       1073.1500000000003       1073.1500000000003       1073.1500000000003       1073.1500000000003       1073.1500000000003       1073.1500000000003       1073.1500000000003       1073.1500000000003       1073.1500000000003       1073.1500000000003       1073.1500000000003       1073.1500000000003       1073.1500000000003       1073.1500000000003       1073.1500000000003       1073.1500000000003       1073.1500000000003       1073.1500000000003       1073.1500000000003       1073.1500000000003       1073.1500000000003       1073.1500000000003       1073.1500000000003       1073.1500000000003       1073.1500000000003       1073.1500000000003       1073.1500000000003       1073.1500000000003       1073.1500000000003       1073.1500000000003       1073.1500000000003       1073.1500000000003       1073.1500000000003       1073.1500000000003       1073.1500000000003       1073.1500000000003       -6.500797403294551E-5    -4.807579801870912E-5    -1.9508839037119828E-7   5.150382771245586E-10    -6.612639892802995E-10   -5.947670993114832E-10   -6.887791604946031E-10   -5.972897975004364E-11   -0.0771166678985859      -0.14750563876030853     -0.03744337767268576     -0.034645169884428305    -0.0026491870469678262   -1.5311012570764346E-4
0.775                     0.48                     -3.2393234897355143E7    NaN                      NaN                      NaN                      NaN                      NaN                      NaN                      NaN                      NaN                      NaN                      NaN                      NaN                      NaN                      NaN                      NaN                      NaN                      NaN                      NaN                      NaN                      NaN                      NaN                      NaN                      NaN                      NaN                      NaN                      NaN                      NaN                      NaN                      NaN                      NaN                      NaN                      NaN                      NaN                      NaN                      NaN                      NaN                      NaN                      NaN                      NaN                      NaN                      NaN                      NaN                      NaN                      NaN                      NaN                      NaN                      NaN                      -6.500797403294532E-5    -4.807579801870897E-5    -1.9508839037119768E-7   5.150382771245612E-10    -6.612639892802978E-10   -5.94767099311483E-10    -6.887791604946027E-10   -5.972897975004361E-11   -0.07711666789858564     -0.14750563876030803     -0.037443377672685636    -0.03464516988442818     -0.0026491870469678176   -1.5311012570764292E-4
0.8250000000000001        0.48                     -3.2393234897355143E7    NaN                      NaN                      NaN                      NaN                      NaN                      NaN                      NaN                      NaN                      NaN                      NaN                      NaN                      NaN                      NaN                      NaN                      NaN                      NaN                      NaN                      NaN                      NaN                      NaN                      NaN                      NaN                      NaN                      NaN                      NaN                      NaN                      NaN                      NaN                      NaN                      NaN                      NaN                      NaN                      NaN                      NaN                      NaN                      NaN                      NaN                      NaN                      NaN                      NaN                      NaN                      NaN                      NaN                      NaN                      NaN                      NaN                      -6.500797403294532E-5    -4.807579801870897E-5    -1.9508839037119768E-7   5.150382771245614E-10    -6.612639892802979E-10   -5.947670993114831E-10   -6.887791604946029E-10   -5.972897975004361E-11   -0.07711666789858562     -0.147505638760308       -0.03744337767268563     -0.03464516988442818     -0.002649187046967817    -1.5311012570764292E-4