% Model:              eigen_1st.mph
% Version:            COMSOL 5.3.1.229
% Date:               Apr 25 2018, 19:57
% Dimension:          2
% Nodes:              1330
% Expressions:        61
% Description:        , , , , , , , , , , , , , , , , , , , , , , , , , , , , , , , , , , , , , , , , , , , , , , , , , , , , , , , , , , , , 
% Length unit:        m
% cpl1x                   cpl1y                    PdensityN (W/m^3) @ lambda=1 Tp221 (K) @ lambda=1     Tp231 (K) @ lambda=1     Tp241 (K) @ lambda=1     Tp31 (K) @ lambda=1      Tp12 (K) @ lambda=1      Tp212 (K) @ lambda=1     Tp222 (K) @ lambda=1     Tp232 (K) @ lambda=1     Tp242 (K) @ lambda=1     Tp32 (K) @ lambda=1      Tp13 (K) @ lambda=1      Tp213 (K) @ lambda=1     Tp223 (K) @ lambda=1     Tp233 (K) @ lambda=1     Tp243 (K) @ lambda=1     Tp33 (K) @ lambda=1      Tp14 (K) @ lambda=1      Tp214 (K) @ lambda=1     Tp224 (K) @ lambda=1     Tp234 (K) @ lambda=1     Tp244 (K) @ lambda=1     Tp34 (K) @ lambda=1      Tp15 (K) @ lambda=1      Tp215 (K) @ lambda=1     Tp225 (K) @ lambda=1     Tp235 (K) @ lambda=1     Tp245 (K) @ lambda=1     Tp35 (K) @ lambda=1      Tp16 (K) @ lambda=1      Tp216 (K) @ lambda=1     Tp226 (K) @ lambda=1     Tp236 (K) @ lambda=1     Tp246 (K) @ lambda=1     Tp36 (K) @ lambda=1      Tp17 (K) @ lambda=1      Tp217 (K) @ lambda=1     Tp227 (K) @ lambda=1     Tp237 (K) @ lambda=1     Tp247 (K) @ lambda=1     Tp37 (K) @ lambda=1      Tp18 (K) @ lambda=1      Tp218 (K) @ lambda=1     Tp228 (K) @ lambda=1     Tp238 (K) @ lambda=1     Tp248 (K) @ lambda=1     Tp38 (K) @ lambda=1      Flux1 (1/(m^2*s)) @ lambda=1 Flux2 (1/(m^2*s)) @ lambda=1 Flux3 (1/(m^2*s)) @ lambda=1 Flux4 (1/(m^2*s)) @ lambda=1 Flux5 (1/(m^2*s)) @ lambda=1 Flux6 (1/(m^2*s)) @ lambda=1 Flux7 (1/(m^2*s)) @ lambda=1 Flux8 (1/(m^2*s)) @ lambda=1 Conc1 (1/(m^2*s)) @ lambda=1 Conc2 (1/(m^2*s)) @ lambda=1 Conc3 (1/(m^2*s)) @ lambda=1 Conc4 (1/(m^2*s)) @ lambda=1 Conc5 (1/(m^2*s)) @ lambda=1 Conc6 (1/(m^2*s)) @ lambda=1
0.025                     0.48                     0                        NaN                      NaN                      NaN                      NaN                      NaN                      NaN                      NaN                      NaN                      NaN                      NaN                      NaN                      NaN                      NaN                      NaN                      NaN                      NaN                      NaN                      NaN                      NaN                      NaN                      NaN                      NaN                      NaN                      NaN                      NaN                      NaN                      NaN                      NaN                      NaN                      NaN                      NaN                      NaN                      NaN                      NaN                      NaN                      NaN                      NaN                      NaN                      NaN                      NaN                      NaN                      NaN                      NaN                      NaN                      NaN                      NaN                      0.0015828305284615062    0.014939079770170182     0.06149057600774413      0.03776706950335947      0.11904817749422575      0.5614447910445798       0.7918148202421793       0.22885678097551657      -2.7344789363000848E-5   -4.581481712437921E-5    -1.1590287926697706E-5   -1.1137385485944784E-5   -8.518078508379593E-7    -5.641099490344584E-8
0.07500000000000001       0.48                     0                        NaN                      NaN                      NaN                      NaN                      NaN                      NaN                      NaN                      NaN                      NaN                      NaN                      NaN                      NaN                      NaN                      NaN                      NaN                      NaN                      NaN                      NaN                      NaN                      NaN                      NaN                      NaN                      NaN                      NaN                      NaN                      NaN                      NaN                      NaN                      NaN                      NaN                      NaN                      NaN                      NaN                      NaN                      NaN                      NaN                      NaN                      NaN                      NaN                      NaN                      NaN                      NaN                      NaN                      NaN                      NaN                      NaN                      0.002065685978809085     0.018626620338070513     0.0723233482706489       0.04366601656844563      0.12047782983748478      0.5582821071512725       0.7862947611848012       0.227252389845322        7.373720627037442E-6     1.333638886783028E-5     3.378876455097704E-6     3.2431414088057644E-6    2.467372645171297E-7     1.4969756173177636E-8
0.125                     0.48                     0                        NaN                      NaN                      NaN                      NaN                      NaN                      NaN                      NaN                      NaN                      NaN                      NaN                      NaN                      NaN                      NaN                      NaN                      NaN                      NaN                      NaN                      NaN                      NaN                      NaN                      NaN                      NaN                      NaN                      NaN                      NaN                      NaN                      NaN                      NaN                      NaN                      NaN                      NaN                      NaN                      NaN                      NaN                      NaN                      NaN                      NaN                      NaN                      NaN                      NaN                      NaN                      NaN                      NaN                      NaN                      NaN                      NaN                      0.0025842819109139262    0.022279422123574182     0.08207540410032968      0.04880101243445647      0.12104671295592483      0.5544805565230199       0.7807253065166656       0.2257305489584624       2.9610328367724954E-5    5.3728596763701726E-5    1.3605338492120708E-5    1.3066589029418045E-5    9.948314316624568E-7     6.24690773215988E-8
0.17500000000000002       0.48                     0                        NaN                      NaN                      NaN                      NaN                      NaN                      NaN                      NaN                      NaN                      NaN                      NaN                      NaN                      NaN                      NaN                      NaN                      NaN                      NaN                      NaN                      NaN                      NaN                      NaN                      NaN                      NaN                      NaN                      NaN                      NaN                      NaN                      NaN                      NaN                      NaN                      NaN                      NaN                      NaN                      NaN                      NaN                      NaN                      NaN                      NaN                      NaN                      NaN                      NaN                      NaN                      NaN                      NaN                      NaN                      NaN                      NaN                      0.004189287271625473     0.03343981190782252      0.11110460134762387      0.06407316405134415      0.11803797239480833      0.539618916009019        0.7656729142796638       0.22251170194144224      2.5587518736479845E-5    4.3413315890341235E-5    1.098198989975324E-5     1.055327453054508E-5     8.069217506068002E-7     5.261455293090353E-8
0.225                     0.48                     0                        NaN                      NaN                      NaN                      NaN                      NaN                      NaN                      NaN                      NaN                      NaN                      NaN                      NaN                      NaN                      NaN                      NaN                      NaN                      NaN                      NaN                      NaN                      NaN                      NaN                      NaN                      NaN                      NaN                      NaN                      NaN                      NaN                      NaN                      NaN                      NaN                      NaN                      NaN                      NaN                      NaN                      NaN                      NaN                      NaN                      NaN                      NaN                      NaN                      NaN                      NaN                      NaN                      NaN                      NaN                      NaN                      NaN                      0.006900689113212998     0.05218350121914994      0.15178496215314535      0.08392041013162725      0.11504909637991215      0.519066501623394        0.7410541127254722       0.21627125776397288      5.879047807729437E-4     0.001176727502940299     2.983637845690921E-4     2.8640057523305403E-4    2.170855695426692E-5     1.2998863611216411E-6
0.275                     0.48                     0                        NaN                      NaN                      NaN                      NaN                      NaN                      NaN                      NaN                      NaN                      NaN                      NaN                      NaN                      NaN                      NaN                      NaN                      NaN                      NaN                      NaN                      NaN                      NaN                      NaN                      NaN                      NaN                      NaN                      NaN                      NaN                      NaN                      NaN                      NaN                      NaN                      NaN                      NaN                      NaN                      NaN                      NaN                      NaN                      NaN                      NaN                      NaN                      NaN                      NaN                      NaN                      NaN                      NaN                      NaN                      NaN                      NaN                      0.013235239514392469     0.08531551325289681      0.20997795861975074      0.10894828982711885      0.11438811021952286      0.48853191155721826      0.6966602392191513       0.20362756486820394      9.235457171552638E-4     0.0018283076658182336    4.6352062286629265E-4    4.4495701630967643E-4    3.374356266594121E-5     2.0318903072192253E-6
0.32500000000000007       0.48                     0                        NaN                      NaN                      NaN                      NaN                      NaN                      NaN                      NaN                      NaN                      NaN                      NaN                      NaN                      NaN                      NaN                      NaN                      NaN                      NaN                      NaN                      NaN                      NaN                      NaN                      NaN                      NaN                      NaN                      NaN                      NaN                      NaN                      NaN                      NaN                      NaN                      NaN                      NaN                      NaN                      NaN                      NaN                      NaN                      NaN                      NaN                      NaN                      NaN                      NaN                      NaN                      NaN                      NaN                      NaN                      NaN                      NaN                      0.030461867991251505     0.15504400108794067      0.3009531729621257       0.1385920116945445       0.12310856303730777      0.43643136782784714      0.6007331413713363       0.17344306497417258      -8.959803186023283E-4    -0.002017568144883766    -5.121957434886402E-4    -4.913926372784548E-4    -3.705468632938184E-5    -2.093910942074164E-6
0.37500000000000006       0.48                     0                        NaN                      NaN                      NaN                      NaN                      NaN                      NaN                      NaN                      NaN                      NaN                      NaN                      NaN                      NaN                      NaN                      NaN                      NaN                      NaN                      NaN                      NaN                      NaN                      NaN                      NaN                      NaN                      NaN                      NaN                      NaN                      NaN                      NaN                      NaN                      NaN                      NaN                      NaN                      NaN                      NaN                      NaN                      NaN                      NaN                      NaN                      NaN                      NaN                      NaN                      NaN                      NaN                      NaN                      NaN                      NaN                      NaN                      0.03692657779475687      0.18073096485131876      0.3336715462883124       0.14895585250110976      0.1264084676499373       0.417216437027766        0.5651318119765211       0.1622140960134015       -0.0019053464123049639   -0.004105669600242333    -0.0010418353968651547   -9.99713899941924E-4     -7.552621285249703E-5    -4.359916069643557E-6
0.42500000000000004       0.48                     0                        NaN                      NaN                      NaN                      NaN                      NaN                      NaN                      NaN                      NaN                      NaN                      NaN                      NaN                      NaN                      NaN                      NaN                      NaN                      NaN                      NaN                      NaN                      NaN                      NaN                      NaN                      NaN                      NaN                      NaN                      NaN                      NaN                      NaN                      NaN                      NaN                      NaN                      NaN                      NaN                      NaN                      NaN                      NaN                      NaN                      NaN                      NaN                      NaN                      NaN                      NaN                      NaN                      NaN                      NaN                      NaN                      NaN                      0.07261123637694147      0.28160060884390736      0.4141775720226822       0.15426660722538238      0.1256504022653981       0.33221228261668007      0.4367167288489106       0.12246476900451093      0.005148707700247495     0.009345496633456312     0.002367024527288527     0.002273174239390696     1.7309180089594223E-4    1.0888320029622728E-5
0.47500000000000003       0.48                     5921606.741858705        1073.1500000000005       1073.1500000000005       1073.1500000000005       1073.1500000000005       1073.1500000000005       1073.1500000000005       1073.1500000000005       1073.1500000000005       1073.1500000000005       1073.1500000000005       1073.1500000000005       1073.1500000000005       1073.1500000000005       1073.1500000000005       1073.1500000000005       1073.1500000000005       1073.1500000000005       1073.1500000000005       1073.1500000000005       1073.1500000000005       1073.1500000000005       1073.1500000000005       1073.1500000000005       1073.1500000000005       1073.1500000000005       1073.1500000000005       1073.1500000000005       1073.1500000000005       1073.1500000000005       1073.1500000000005       1073.1500000000005       1073.1500000000005       1073.1500000000005       1073.1500000000005       1073.1500000000005       1073.1500000000005       1073.1500000000005       1073.1500000000005       1073.1500000000005       1073.1500000000005       1073.1500000000005       1073.1500000000005       1073.1500000000005       1073.1500000000005       1073.1500000000005       1073.1500000000005       0.11213756844175145      0.3933294918463277       0.5033505677251962       0.16014909743508707      0.12481072646894542      0.238056906955656        0.2944769703784125       0.07843618189928021      0.012962174224348894     0.024244763835008544     0.00614286923697533      0.0058984089633912305    4.484750764871054E-4     2.777812274621985E-5
0.525                     0.48                     5921606.741858703        1073.15                  1073.15                  1073.15                  1073.15                  1073.15                  1073.15                  1073.15                  1073.15                  1073.15                  1073.15                  1073.15                  1073.15                  1073.15                  1073.15                  1073.15                  1073.15                  1073.15                  1073.15                  1073.15                  1073.15                  1073.15                  1073.15                  1073.15                  1073.15                  1073.15                  1073.15                  1073.15                  1073.15                  1073.15                  1073.15                  1073.15                  1073.15                  1073.15                  1073.15                  1073.15                  1073.15                  1073.15                  1073.15                  1073.15                  1073.15                  1073.15                  1073.15                  1073.15                  1073.15                  1073.15                  1073.15                  0.11213756844175139      0.39332949184632754      0.5033505677251959       0.16014909743508698      0.12481072646894537      0.2380569069556559       0.29447697037841236      0.07843618189928017      0.012962174224348888     0.024244763835008534     0.006142869236975327     0.005898408963391228     4.484750764871052E-4     2.777812274621984E-5
0.5750000000000001        0.48                     2957952.106585306        1073.1499999999999       1073.1499999999999       1073.1499999999999       1073.1499999999999       1073.1499999999999       1073.1499999999999       1073.1499999999999       1073.1499999999999       1073.1499999999999       1073.1499999999999       1073.1499999999999       1073.1499999999999       1073.1499999999999       1073.1499999999999       1073.1499999999999       1073.1499999999999       1073.1499999999999       1073.1499999999999       1073.1499999999999       1073.1499999999999       1073.1499999999999       1073.1499999999999       1073.1499999999999       1073.1499999999999       1073.1499999999999       1073.1499999999999       1073.1499999999999       1073.1499999999999       1073.1499999999999       1073.1499999999999       1073.1499999999999       1073.1499999999999       1073.1499999999999       1073.1499999999999       1073.1499999999999       1073.1499999999999       1073.1499999999999       1073.1499999999999       1073.1499999999999       1073.1499999999999       1073.1499999999999       1073.1499999999999       1073.1499999999999       1073.1499999999999       1073.1499999999999       1073.1499999999999       0.14201042002156203      0.5018815131977242       0.6056810923771483       0.15576890209206357      0.10597238085004788      0.11678978538342638      0.128279530568328        0.031126752534854935     0.012125269908147308     0.022455815227179446     0.005688977787760858     0.005462842357095984     4.1554916391940743E-4    2.5868371432116554E-5
0.6250000000000001        0.48                     2331678.684001854        1073.1500000000005       1073.1500000000005       1073.1500000000005       1073.1500000000005       1073.1500000000005       1073.1500000000005       1073.1500000000005       1073.1500000000005       1073.1500000000005       1073.1500000000005       1073.1500000000005       1073.1500000000005       1073.1500000000005       1073.1500000000005       1073.1500000000005       1073.1500000000005       1073.1500000000005       1073.1500000000005       1073.1500000000005       1073.1500000000005       1073.1500000000005       1073.1500000000005       1073.1500000000005       1073.1500000000005       1073.1500000000005       1073.1500000000005       1073.1500000000005       1073.1500000000005       1073.1500000000005       1073.1500000000005       1073.1500000000005       1073.1500000000005       1073.1500000000005       1073.1500000000005       1073.1500000000005       1073.1500000000005       1073.1500000000005       1073.1500000000005       1073.1500000000005       1073.1500000000005       1073.1500000000005       1073.1500000000005       1073.1500000000005       1073.1500000000005       1073.1500000000005       1073.1500000000005       0.13652906523390668      0.4855645538864087       0.5930791402290169       0.14740432583063529      0.105820371156244        0.09167827539682671      0.09383505786478628      0.02177900286880528      0.011890170036885554     0.022052593366571293     0.0055869162654716914    0.005364799799045609     4.0806328114611416E-4    2.5383397158604622E-5
0.675                     0.48                     2213186.3105781768       1073.1500000000005       1073.1500000000005       1073.1500000000005       1073.1500000000005       1073.1500000000005       1073.1500000000005       1073.1500000000005       1073.1500000000005       1073.1500000000005       1073.1500000000005       1073.1500000000005       1073.1500000000005       1073.1500000000005       1073.1500000000005       1073.1500000000005       1073.1500000000005       1073.1500000000005       1073.1500000000005       1073.1500000000005       1073.1500000000005       1073.1500000000005       1073.1500000000005       1073.1500000000005       1073.1500000000005       1073.1500000000005       1073.1500000000005       1073.1500000000005       1073.1500000000005       1073.1500000000005       1073.1500000000005       1073.1500000000005       1073.1500000000005       1073.1500000000005       1073.1500000000005       1073.1500000000005       1073.1500000000005       1073.1500000000005       1073.1500000000005       1073.1500000000005       1073.1500000000005       1073.1500000000005       1073.1500000000005       1073.1500000000005       1073.1500000000005       1073.1500000000005       1073.1500000000005       0.13546020452638546      0.4823715832358443       0.5906026086897387       0.14580168650193318      0.10580192641387247      0.0869285058284588       0.08731990570389055      0.020012137230968275     0.01184553166950759      0.021976235008384092     0.005567589431467247     0.005346233757290688     4.06645512214494E-4      2.529141957383697E-5
0.7250000000000001        0.48                     2213186.3105781786       1073.1500000000003       1073.1500000000003       1073.1500000000003       1073.1500000000003       1073.1500000000003       1073.1500000000003       1073.1500000000003       1073.1500000000003       1073.1500000000003       1073.1500000000003       1073.1500000000003       1073.1500000000003       1073.1500000000003       1073.1500000000003       1073.1500000000003       1073.1500000000003       1073.1500000000003       1073.1500000000003       1073.1500000000003       1073.1500000000003       1073.1500000000003       1073.1500000000003       1073.1500000000003       1073.1500000000003       1073.1500000000003       1073.1500000000003       1073.1500000000003       1073.1500000000003       1073.1500000000003       1073.1500000000003       1073.1500000000003       1073.1500000000003       1073.1500000000003       1073.1500000000003       1073.1500000000003       1073.1500000000003       1073.1500000000003       1073.1500000000003       1073.1500000000003       1073.1500000000003       1073.1500000000003       1073.1500000000003       1073.1500000000003       1073.1500000000003       1073.1500000000003       1073.1500000000003       0.13546020452638555      0.48237158323584456      0.590602608689739        0.14580168650193323      0.10580192641387252      0.08692850582845886      0.0873199057038906       0.020012137230968285     0.011845531669507595     0.021976235008384103     0.00556758943146725      0.005346233757290692     4.066455122144942E-4     2.5291419573836983E-5
0.775                     0.48                     2204393.4034749293       NaN                      NaN                      NaN                      NaN                      NaN                      NaN                      NaN                      NaN                      NaN                      NaN                      NaN                      NaN                      NaN                      NaN                      NaN                      NaN                      NaN                      NaN                      NaN                      NaN                      NaN                      NaN                      NaN                      NaN                      NaN                      NaN                      NaN                      NaN                      NaN                      NaN                      NaN                      NaN                      NaN                      NaN                      NaN                      NaN                      NaN                      NaN                      NaN                      NaN                      NaN                      NaN                      NaN                      NaN                      NaN                      NaN                      0.13546020452638557      0.48237158323584467      0.5906026086897391       0.1458016865019333       0.10580192641387255      0.08692850582845886      0.08731990570389062      0.020012137230968285     0.011845531669507598     0.021976235008384106     0.005567589431467251     0.0053462337572906925    4.066455122144943E-4     2.529141957383699E-5
0.8250000000000001        0.48                     2204393.4034749297       NaN                      NaN                      NaN                      NaN                      NaN                      NaN                      NaN                      NaN                      NaN                      NaN                      NaN                      NaN                      NaN                      NaN                      NaN                      NaN                      NaN                      NaN                      NaN                      NaN                      NaN                      NaN                      NaN                      NaN                      NaN                      NaN                      NaN                      NaN                      NaN                      NaN                      NaN                      NaN                      NaN                      NaN                      NaN                      NaN                      NaN                      NaN                      NaN                      NaN                      NaN                      NaN                      NaN                      NaN                      NaN                      NaN                      0.1354602045263856       0.4823715832358447       0.5906026086897391       0.1458016865019333       0.10580192641387258      0.08692850582845889      0.08731990570389063      0.02001213723096829      0.0118455316695076       0.02197623500838411      0.005567589431467252     0.005346233757290693     4.066455122144943E-4     2.5291419573836993E-5