% Model:              eigen_1st.mph
% Version:            COMSOL 5.3.1.229
% Date:               Mar 20 2018, 15:39
% Dimension:          2
% Nodes:              1330
% Expressions:        61
% Description:        , , , , , , , , , , , , , , , , , , , , , , , , , , , , , , , , , , , , , , , , , , , , , , , , , , , , , , , , , , , , 
% Length unit:        m
% cpl1x                   cpl1y                    PdensityN (W/m^3) @ lambda=1 Tp221 (K) @ lambda=1     Tp231 (K) @ lambda=1     Tp241 (K) @ lambda=1     Tp31 (K) @ lambda=1      Tp12 (K) @ lambda=1      Tp212 (K) @ lambda=1     Tp222 (K) @ lambda=1     Tp232 (K) @ lambda=1     Tp242 (K) @ lambda=1     Tp32 (K) @ lambda=1      Tp13 (K) @ lambda=1      Tp213 (K) @ lambda=1     Tp223 (K) @ lambda=1     Tp233 (K) @ lambda=1     Tp243 (K) @ lambda=1     Tp33 (K) @ lambda=1      Tp14 (K) @ lambda=1      Tp214 (K) @ lambda=1     Tp224 (K) @ lambda=1     Tp234 (K) @ lambda=1     Tp244 (K) @ lambda=1     Tp34 (K) @ lambda=1      Tp15 (K) @ lambda=1      Tp215 (K) @ lambda=1     Tp225 (K) @ lambda=1     Tp235 (K) @ lambda=1     Tp245 (K) @ lambda=1     Tp35 (K) @ lambda=1      Tp16 (K) @ lambda=1      Tp216 (K) @ lambda=1     Tp226 (K) @ lambda=1     Tp236 (K) @ lambda=1     Tp246 (K) @ lambda=1     Tp36 (K) @ lambda=1      Tp17 (K) @ lambda=1      Tp217 (K) @ lambda=1     Tp227 (K) @ lambda=1     Tp237 (K) @ lambda=1     Tp247 (K) @ lambda=1     Tp37 (K) @ lambda=1      Tp18 (K) @ lambda=1      Tp218 (K) @ lambda=1     Tp228 (K) @ lambda=1     Tp238 (K) @ lambda=1     Tp248 (K) @ lambda=1     Tp38 (K) @ lambda=1      Flux1 (1/(m^2*s)) @ lambda=1 Flux2 (1/(m^2*s)) @ lambda=1 Flux3 (1/(m^2*s)) @ lambda=1 Flux4 (1/(m^2*s)) @ lambda=1 Flux5 (1/(m^2*s)) @ lambda=1 Flux6 (1/(m^2*s)) @ lambda=1 Flux7 (1/(m^2*s)) @ lambda=1 Flux8 (1/(m^2*s)) @ lambda=1 Conc1 (1/(m^2*s)) @ lambda=1 Conc2 (1/(m^2*s)) @ lambda=1 Conc3 (1/(m^2*s)) @ lambda=1 Conc4 (1/(m^2*s)) @ lambda=1 Conc5 (1/(m^2*s)) @ lambda=1 Conc6 (1/(m^2*s)) @ lambda=1
0.025                     0.48                     0                        NaN                      NaN                      NaN                      NaN                      NaN                      NaN                      NaN                      NaN                      NaN                      NaN                      NaN                      NaN                      NaN                      NaN                      NaN                      NaN                      NaN                      NaN                      NaN                      NaN                      NaN                      NaN                      NaN                      NaN                      NaN                      NaN                      NaN                      NaN                      NaN                      NaN                      NaN                      NaN                      NaN                      NaN                      NaN                      NaN                      NaN                      NaN                      NaN                      NaN                      NaN                      NaN                      NaN                      NaN                      NaN                      NaN                      6.210371603054629E-4     0.006078648198602061     0.026868622248082397     0.017153574675970493     0.07058105293879532      0.3222059423007338       0.4505894723021929       0.13000677107530106      -1.0558579029814874E-5   -1.8463096615950713E-5   -4.677383656086655E-6    -4.32707753949166E-6     -3.3141613170792757E-7   -2.157425023753892E-8
0.07500000000000001       0.48                     0                        NaN                      NaN                      NaN                      NaN                      NaN                      NaN                      NaN                      NaN                      NaN                      NaN                      NaN                      NaN                      NaN                      NaN                      NaN                      NaN                      NaN                      NaN                      NaN                      NaN                      NaN                      NaN                      NaN                      NaN                      NaN                      NaN                      NaN                      NaN                      NaN                      NaN                      NaN                      NaN                      NaN                      NaN                      NaN                      NaN                      NaN                      NaN                      NaN                      NaN                      NaN                      NaN                      NaN                      NaN                      NaN                      NaN                      8.074333245355079E-4     0.007592780504807156     0.031694713474267174     0.019848837692298255     0.07086769403348392      0.3198650128453205       0.44711300151154676      0.12905554147541734      2.8295904942570864E-6    5.34216871451936E-6      1.3544988988179288E-6    1.2528525479355075E-6    9.56924882465051E-8      5.974350434915888E-9
0.125                     0.48                     0                        NaN                      NaN                      NaN                      NaN                      NaN                      NaN                      NaN                      NaN                      NaN                      NaN                      NaN                      NaN                      NaN                      NaN                      NaN                      NaN                      NaN                      NaN                      NaN                      NaN                      NaN                      NaN                      NaN                      NaN                      NaN                      NaN                      NaN                      NaN                      NaN                      NaN                      NaN                      NaN                      NaN                      NaN                      NaN                      NaN                      NaN                      NaN                      NaN                      NaN                      NaN                      NaN                      NaN                      NaN                      NaN                      NaN                      0.0010088272360723766    0.009110546123633465     0.03610255706800738      0.022232394232032805     0.07073401858392797      0.3175109250185225       0.44411410633071213      0.12828728267953554      1.1606673874101265E-5    2.1917000567148346E-5    5.557053934220396E-6     5.140136491462419E-6     3.9258372968972274E-7    2.454093060757823E-8
0.17500000000000002       0.48                     0                        NaN                      NaN                      NaN                      NaN                      NaN                      NaN                      NaN                      NaN                      NaN                      NaN                      NaN                      NaN                      NaN                      NaN                      NaN                      NaN                      NaN                      NaN                      NaN                      NaN                      NaN                      NaN                      NaN                      NaN                      NaN                      NaN                      NaN                      NaN                      NaN                      NaN                      NaN                      NaN                      NaN                      NaN                      NaN                      NaN                      NaN                      NaN                      NaN                      NaN                      NaN                      NaN                      NaN                      NaN                      NaN                      NaN                      0.0016287040808087622    0.013749404627927146     0.049268114019432145     0.02933813580708776      0.06706740913922417      0.3089044967973432       0.43745165127434726      0.1271395562155216       8.485186459437238E-6     1.4926353462209863E-5    3.7812545535139274E-6    3.498094818772481E-6     2.6794830671078236E-7    1.740983423634454E-8
0.225                     0.48                     0                        NaN                      NaN                      NaN                      NaN                      NaN                      NaN                      NaN                      NaN                      NaN                      NaN                      NaN                      NaN                      NaN                      NaN                      NaN                      NaN                      NaN                      NaN                      NaN                      NaN                      NaN                      NaN                      NaN                      NaN                      NaN                      NaN                      NaN                      NaN                      NaN                      NaN                      NaN                      NaN                      NaN                      NaN                      NaN                      NaN                      NaN                      NaN                      NaN                      NaN                      NaN                      NaN                      NaN                      NaN                      NaN                      NaN                      0.002683650963046784     0.02160080321194989      0.06801212905694612      0.03880998674824773      0.06349912780500143      0.29762636857670954      0.4261858256808322       0.12450712954994367      2.2711151018490664E-4    4.780421557406152E-4     1.2135435182881085E-4    1.1222776540713114E-4    8.537540076582116E-6     5.042666016308356E-7
0.275                     0.48                     0                        NaN                      NaN                      NaN                      NaN                      NaN                      NaN                      NaN                      NaN                      NaN                      NaN                      NaN                      NaN                      NaN                      NaN                      NaN                      NaN                      NaN                      NaN                      NaN                      NaN                      NaN                      NaN                      NaN                      NaN                      NaN                      NaN                      NaN                      NaN                      NaN                      NaN                      NaN                      NaN                      NaN                      NaN                      NaN                      NaN                      NaN                      NaN                      NaN                      NaN                      NaN                      NaN                      NaN                      NaN                      NaN                      NaN                      0.005136041711759512     0.035654272395654864     0.09539947271487102      0.051122555459805874     0.06187685181085201      0.2815494573401689       0.40447558405985184      0.11843513711208209      3.597738757997019E-4     7.483798355449281E-4     1.8995955731699509E-4    1.7567671257702114E-4    1.336945182518714E-5     7.943005179133372E-7
0.32500000000000007       0.48                     0                        NaN                      NaN                      NaN                      NaN                      NaN                      NaN                      NaN                      NaN                      NaN                      NaN                      NaN                      NaN                      NaN                      NaN                      NaN                      NaN                      NaN                      NaN                      NaN                      NaN                      NaN                      NaN                      NaN                      NaN                      NaN                      NaN                      NaN                      NaN                      NaN                      NaN                      NaN                      NaN                      NaN                      NaN                      NaN                      NaN                      NaN                      NaN                      NaN                      NaN                      NaN                      NaN                      NaN                      NaN                      NaN                      NaN                      0.01180133430701979      0.06578799922922476      0.14011468999686563      0.06696429336531007      0.068791527316483        0.2558170765787626       0.3544909552347282       0.10251350216231869      -3.159528548626276E-4    -7.605645621459404E-4    -1.9331626745584416E-4   -1.7874137584271367E-4   -1.3540899025850185E-5   -7.494572425882867E-7
0.37500000000000006       0.48                     0                        NaN                      NaN                      NaN                      NaN                      NaN                      NaN                      NaN                      NaN                      NaN                      NaN                      NaN                      NaN                      NaN                      NaN                      NaN                      NaN                      NaN                      NaN                      NaN                      NaN                      NaN                      NaN                      NaN                      NaN                      NaN                      NaN                      NaN                      NaN                      NaN                      NaN                      NaN                      NaN                      NaN                      NaN                      NaN                      NaN                      NaN                      NaN                      NaN                      NaN                      NaN                      NaN                      NaN                      NaN                      NaN                      NaN                      0.014304460251314101     0.07691995429269602      0.1562971687014385       0.07257287260378227      0.07149430681144024      0.24641898311058621      0.3359952845603925       0.09660012420208958      -6.951709212853554E-4    -0.001587672109400335    -4.0335664408666633E-4   -3.7297439896092954E-4   -2.8299691696321688E-5   -1.6059360945420109E-6
0.42500000000000004       0.48                     0                        NaN                      NaN                      NaN                      NaN                      NaN                      NaN                      NaN                      NaN                      NaN                      NaN                      NaN                      NaN                      NaN                      NaN                      NaN                      NaN                      NaN                      NaN                      NaN                      NaN                      NaN                      NaN                      NaN                      NaN                      NaN                      NaN                      NaN                      NaN                      NaN                      NaN                      NaN                      NaN                      NaN                      NaN                      NaN                      NaN                      NaN                      NaN                      NaN                      NaN                      NaN                      NaN                      NaN                      NaN                      NaN                      NaN                      0.02802587161312805      0.12278162240873297      0.20100405913942232      0.07820127972555677      0.07429309146137873      0.2046703718466659       0.2672419324083432       0.07486334794016271      0.00197154611571295      0.003744100126068944     9.494879966617198E-4     8.782275236982307E-4     6.703879961427488E-5     4.168958316857164E-6
0.47500000000000003       0.48                     2396128.7529554856       1073.1500000000005       1073.1500000000005       1073.1500000000005       1073.1500000000005       1073.1500000000005       1073.1500000000005       1073.1500000000005       1073.1500000000005       1073.1500000000005       1073.1500000000005       1073.1500000000005       1073.1500000000005       1073.1500000000005       1073.1500000000005       1073.1500000000005       1073.1500000000005       1073.1500000000005       1073.1500000000005       1073.1500000000005       1073.1500000000005       1073.1500000000005       1073.1500000000005       1073.1500000000005       1073.1500000000005       1073.1500000000005       1073.1500000000005       1073.1500000000005       1073.1500000000005       1073.1500000000005       1073.1500000000005       1073.1500000000005       1073.1500000000005       1073.1500000000005       1073.1500000000005       1073.1500000000005       1073.1500000000005       1073.1500000000005       1073.1500000000005       1073.1500000000005       1073.1500000000005       1073.1500000000005       1073.1500000000005       1073.1500000000005       1073.1500000000005       1073.1500000000005       1073.1500000000005       0.043224477496825175     0.17358058182222127      0.2505239219389235       0.08443561957159539      0.07739318253263221      0.15842726521130562      0.1910868580513347       0.050786473712302146     0.004925351681332245     0.00964987051161795      0.0024479747029073954    0.0022641290466525535    1.7264106725042898E-4    1.0565555712303092E-5
0.525                     0.48                     2396128.7529554847       1073.15                  1073.15                  1073.15                  1073.15                  1073.15                  1073.15                  1073.15                  1073.15                  1073.15                  1073.15                  1073.15                  1073.15                  1073.15                  1073.15                  1073.15                  1073.15                  1073.15                  1073.15                  1073.15                  1073.15                  1073.15                  1073.15                  1073.15                  1073.15                  1073.15                  1073.15                  1073.15                  1073.15                  1073.15                  1073.15                  1073.15                  1073.15                  1073.15                  1073.15                  1073.15                  1073.15                  1073.15                  1073.15                  1073.15                  1073.15                  1073.15                  1073.15                  1073.15                  1073.15                  1073.15                  1073.15                  0.043224477496825155     0.1735805818222212       0.25052392193892337      0.08443561957159536      0.07739318253263218      0.15842726521130557      0.19108685805133463      0.050786473712302126     0.004925351681332243     0.009649870511617947     0.0024479747029073945    0.002264129046652552     1.726410672504289E-4     1.0565555712303088E-5
0.5750000000000001        0.48                     1458047.131153854        1073.1499999999996       1073.1499999999996       1073.1499999999996       1073.1499999999996       1073.1499999999996       1073.1499999999996       1073.1499999999996       1073.1499999999996       1073.1499999999996       1073.1499999999996       1073.1499999999996       1073.1499999999996       1073.1499999999996       1073.1499999999996       1073.1499999999996       1073.1499999999996       1073.1499999999996       1073.1499999999996       1073.1499999999996       1073.1499999999996       1073.1499999999996       1073.1499999999996       1073.1499999999996       1073.1499999999996       1073.1499999999996       1073.1499999999996       1073.1499999999996       1073.1499999999996       1073.1499999999996       1073.1499999999996       1073.1499999999996       1073.1499999999996       1073.1499999999996       1073.1499999999996       1073.1499999999996       1073.1499999999996       1073.1499999999996       1073.1499999999996       1073.1499999999996       1073.1499999999996       1073.1499999999996       1073.1499999999996       1073.1499999999996       1073.1499999999996       1073.1499999999996       1073.1499999999996       0.05994142727085655      0.2326716598692659       0.29094405399777495      0.07952860341958586      0.07226388117887027      0.09934520682909699      0.10662250834396907      0.025773087250388703     0.007932605742211279     0.01538815642717711      0.0039032725382848717    0.003610190678371654     2.7536997403470963E-4    1.6936538373305936E-5
0.6250000000000001        0.48                     1804612.9187664452       1073.1500000000008       1073.1500000000008       1073.1500000000008       1073.1500000000008       1073.1500000000008       1073.1500000000008       1073.1500000000008       1073.1500000000008       1073.1500000000008       1073.1500000000008       1073.1500000000008       1073.1500000000008       1073.1500000000008       1073.1500000000008       1073.1500000000008       1073.1500000000008       1073.1500000000008       1073.1500000000008       1073.1500000000008       1073.1500000000008       1073.1500000000008       1073.1500000000008       1073.1500000000008       1073.1500000000008       1073.1500000000008       1073.1500000000008       1073.1500000000008       1073.1500000000008       1073.1500000000008       1073.1500000000008       1073.1500000000008       1073.1500000000008       1073.1500000000008       1073.1500000000008       1073.1500000000008       1073.1500000000008       1073.1500000000008       1073.1500000000008       1073.1500000000008       1073.1500000000008       1073.1500000000008       1073.1500000000008       1073.1500000000008       1073.1500000000008       1073.1500000000008       1073.1500000000008       0.03607244524316947      0.1488949692475025       0.21826631674176436      0.06948472034342995      0.06682779533561942      0.11982036138744644      0.14153105566152133      0.03722008327608398      0.004249444580947511     0.00825104867600748      0.0020929339636097666    0.0019357805679704526    1.4764847145326877E-4    9.076801703429596E-6
0.675                     0.48                     1870961.1560603846       1073.1500000000005       1073.1500000000005       1073.1500000000005       1073.1500000000005       1073.1500000000005       1073.1500000000005       1073.1500000000005       1073.1500000000005       1073.1500000000005       1073.1500000000005       1073.1500000000005       1073.1500000000005       1073.1500000000005       1073.1500000000005       1073.1500000000005       1073.1500000000005       1073.1500000000005       1073.1500000000005       1073.1500000000005       1073.1500000000005       1073.1500000000005       1073.1500000000005       1073.1500000000005       1073.1500000000005       1073.1500000000005       1073.1500000000005       1073.1500000000005       1073.1500000000005       1073.1500000000005       1073.1500000000005       1073.1500000000005       1073.1500000000005       1073.1500000000005       1073.1500000000005       1073.1500000000005       1073.1500000000005       1073.1500000000005       1073.1500000000005       1073.1500000000005       1073.1500000000005       1073.1500000000005       1073.1500000000005       1073.1500000000005       1073.1500000000005       1073.1500000000005       1073.1500000000005       0.03150325998437301      0.1328577832339875       0.20435387124412796      0.06756214439001819      0.06578725395299166      0.1237402556273314       0.14821403194321753      0.03941150084001354      0.0035443817191359523    0.006884801966452066     0.0017463833448972022    0.0016152505475734611    1.2319891973643475E-4    7.57222269392969E-6
0.7250000000000001        0.48                     1870961.1560603858       1073.1500000000003       1073.1500000000003       1073.1500000000003       1073.1500000000003       1073.1500000000003       1073.1500000000003       1073.1500000000003       1073.1500000000003       1073.1500000000003       1073.1500000000003       1073.1500000000003       1073.1500000000003       1073.1500000000003       1073.1500000000003       1073.1500000000003       1073.1500000000003       1073.1500000000003       1073.1500000000003       1073.1500000000003       1073.1500000000003       1073.1500000000003       1073.1500000000003       1073.1500000000003       1073.1500000000003       1073.1500000000003       1073.1500000000003       1073.1500000000003       1073.1500000000003       1073.1500000000003       1073.1500000000003       1073.1500000000003       1073.1500000000003       1073.1500000000003       1073.1500000000003       1073.1500000000003       1073.1500000000003       1073.1500000000003       1073.1500000000003       1073.1500000000003       1073.1500000000003       1073.1500000000003       1073.1500000000003       1073.1500000000003       1073.1500000000003       1073.1500000000003       1073.1500000000003       0.03150325998437303      0.13285778323398756      0.20435387124412807      0.06756214439001822      0.0657872539529917       0.12374025562733147      0.1482140319432176       0.03941150084001357      0.003544381719135954     0.006884801966452071     0.001746383344897203     0.001615250547573462     1.231989197364348E-4     7.572222693929694E-6
0.775                     0.48                     0                        NaN                      NaN                      NaN                      NaN                      NaN                      NaN                      NaN                      NaN                      NaN                      NaN                      NaN                      NaN                      NaN                      NaN                      NaN                      NaN                      NaN                      NaN                      NaN                      NaN                      NaN                      NaN                      NaN                      NaN                      NaN                      NaN                      NaN                      NaN                      NaN                      NaN                      NaN                      NaN                      NaN                      NaN                      NaN                      NaN                      NaN                      NaN                      NaN                      NaN                      NaN                      NaN                      NaN                      NaN                      NaN                      NaN                      0.03150325998437304      0.13285778323398761      0.20435387124412813      0.06756214439001824      0.06578725395299172      0.1237402556273315       0.14821403194321764      0.039411500840013575     0.0035443817191359553    0.006884801966452073     0.001746383344897204     0.0016152505475734626    1.2319891973643486E-4    7.572222693929697E-6
0.8250000000000001        0.48                     0                        NaN                      NaN                      NaN                      NaN                      NaN                      NaN                      NaN                      NaN                      NaN                      NaN                      NaN                      NaN                      NaN                      NaN                      NaN                      NaN                      NaN                      NaN                      NaN                      NaN                      NaN                      NaN                      NaN                      NaN                      NaN                      NaN                      NaN                      NaN                      NaN                      NaN                      NaN                      NaN                      NaN                      NaN                      NaN                      NaN                      NaN                      NaN                      NaN                      NaN                      NaN                      NaN                      NaN                      NaN                      NaN                      NaN                      0.03150325998437305      0.13285778323398764      0.20435387124412815      0.06756214439001826      0.06578725395299173      0.12374025562733151      0.14821403194321767      0.03941150084001358      0.0035443817191359557    0.006884801966452073     0.001746383344897204     0.0016152505475734629    1.2319891973643486E-4    7.5722226939296984E-6