% Model:              eigen_1st.mph
% Version:            COMSOL 5.3.1.229
% Date:               May 2 2018, 23:20
% Dimension:          2
% Nodes:              1330
% Expressions:        61
% Description:        , , , , , , , , , , , , , , , , , , , , , , , , , , , , , , , , , , , , , , , , , , , , , , , , , , , , , , , , , , , , 
% Length unit:        m
% cpl1x                   cpl1y                    PdensityN (W/m^3) @ lambda=1 Tp221 (K) @ lambda=1     Tp231 (K) @ lambda=1     Tp241 (K) @ lambda=1     Tp31 (K) @ lambda=1      Tp12 (K) @ lambda=1      Tp212 (K) @ lambda=1     Tp222 (K) @ lambda=1     Tp232 (K) @ lambda=1     Tp242 (K) @ lambda=1     Tp32 (K) @ lambda=1      Tp13 (K) @ lambda=1      Tp213 (K) @ lambda=1     Tp223 (K) @ lambda=1     Tp233 (K) @ lambda=1     Tp243 (K) @ lambda=1     Tp33 (K) @ lambda=1      Tp14 (K) @ lambda=1      Tp214 (K) @ lambda=1     Tp224 (K) @ lambda=1     Tp234 (K) @ lambda=1     Tp244 (K) @ lambda=1     Tp34 (K) @ lambda=1      Tp15 (K) @ lambda=1      Tp215 (K) @ lambda=1     Tp225 (K) @ lambda=1     Tp235 (K) @ lambda=1     Tp245 (K) @ lambda=1     Tp35 (K) @ lambda=1      Tp16 (K) @ lambda=1      Tp216 (K) @ lambda=1     Tp226 (K) @ lambda=1     Tp236 (K) @ lambda=1     Tp246 (K) @ lambda=1     Tp36 (K) @ lambda=1      Tp17 (K) @ lambda=1      Tp217 (K) @ lambda=1     Tp227 (K) @ lambda=1     Tp237 (K) @ lambda=1     Tp247 (K) @ lambda=1     Tp37 (K) @ lambda=1      Tp18 (K) @ lambda=1      Tp218 (K) @ lambda=1     Tp228 (K) @ lambda=1     Tp238 (K) @ lambda=1     Tp248 (K) @ lambda=1     Tp38 (K) @ lambda=1      Flux1 (1/(m^2*s)) @ lambda=1 Flux2 (1/(m^2*s)) @ lambda=1 Flux3 (1/(m^2*s)) @ lambda=1 Flux4 (1/(m^2*s)) @ lambda=1 Flux5 (1/(m^2*s)) @ lambda=1 Flux6 (1/(m^2*s)) @ lambda=1 Flux7 (1/(m^2*s)) @ lambda=1 Flux8 (1/(m^2*s)) @ lambda=1 Conc1 (1/(m^2*s)) @ lambda=1 Conc2 (1/(m^2*s)) @ lambda=1 Conc3 (1/(m^2*s)) @ lambda=1 Conc4 (1/(m^2*s)) @ lambda=1 Conc5 (1/(m^2*s)) @ lambda=1 Conc6 (1/(m^2*s)) @ lambda=1
0.025                     0.48                     0                        NaN                      NaN                      NaN                      NaN                      NaN                      NaN                      NaN                      NaN                      NaN                      NaN                      NaN                      NaN                      NaN                      NaN                      NaN                      NaN                      NaN                      NaN                      NaN                      NaN                      NaN                      NaN                      NaN                      NaN                      NaN                      NaN                      NaN                      NaN                      NaN                      NaN                      NaN                      NaN                      NaN                      NaN                      NaN                      NaN                      NaN                      NaN                      NaN                      NaN                      NaN                      NaN                      NaN                      NaN                      NaN                      NaN                      6.228377917840359E-4     0.006218594631955351     0.027312832814487244     0.017125901234819756     0.06626770539094824      0.32243400185476806      0.4563504743130172       0.13202680261930416      -1.0891493775566978E-5   -1.889718421874181E-5    -4.672049139209681E-6    -4.402128536862112E-6    -3.3473528296130937E-7   -2.1343336788858532E-8
0.07500000000000001       0.48                     0                        NaN                      NaN                      NaN                      NaN                      NaN                      NaN                      NaN                      NaN                      NaN                      NaN                      NaN                      NaN                      NaN                      NaN                      NaN                      NaN                      NaN                      NaN                      NaN                      NaN                      NaN                      NaN                      NaN                      NaN                      NaN                      NaN                      NaN                      NaN                      NaN                      NaN                      NaN                      NaN                      NaN                      NaN                      NaN                      NaN                      NaN                      NaN                      NaN                      NaN                      NaN                      NaN                      NaN                      NaN                      NaN                      NaN                      8.098705564350407E-4     0.007750256564159452     0.03217702905626861      0.01984618639457863      0.06671873766080125      0.32010980848095794      0.452642610383905        0.13096830757837122      2.9271844446589455E-6    5.478833349379211E-6     1.3555690963103132E-6    1.2769088520939899E-6    9.680250924433641E-8     5.954770226203287E-9
0.125                     0.48                     0                        NaN                      NaN                      NaN                      NaN                      NaN                      NaN                      NaN                      NaN                      NaN                      NaN                      NaN                      NaN                      NaN                      NaN                      NaN                      NaN                      NaN                      NaN                      NaN                      NaN                      NaN                      NaN                      NaN                      NaN                      NaN                      NaN                      NaN                      NaN                      NaN                      NaN                      NaN                      NaN                      NaN                      NaN                      NaN                      NaN                      NaN                      NaN                      NaN                      NaN                      NaN                      NaN                      NaN                      NaN                      NaN                      NaN                      0.0010119623671045429    0.009284083220754994     0.03661811142814407      0.02225365681274147      0.06681115495359585      0.31777102662079415      0.4493722796029731       0.13008933952394824      1.2008921360112705E-5    2.249830822595983E-5     5.566799489104406E-6     5.243612815621177E-6     3.974528979669685E-7     2.4399629617573056E-8
0.17500000000000002       0.48                     0                        NaN                      NaN                      NaN                      NaN                      NaN                      NaN                      NaN                      NaN                      NaN                      NaN                      NaN                      NaN                      NaN                      NaN                      NaN                      NaN                      NaN                      NaN                      NaN                      NaN                      NaN                      NaN                      NaN                      NaN                      NaN                      NaN                      NaN                      NaN                      NaN                      NaN                      NaN                      NaN                      NaN                      NaN                      NaN                      NaN                      NaN                      NaN                      NaN                      NaN                      NaN                      NaN                      NaN                      NaN                      NaN                      NaN                      0.0016340112414726868    0.01396123650614011      0.04987940868511908      0.029461277220681502     0.06459682047666694      0.3092341894887051       0.44122194157645644      0.12844056507059629      8.420273367789784E-6     1.4666179616055138E-5    3.6258182952042667E-6    3.4164031800755707E-6    2.598333031487421E-7     1.6570359492026693E-8
0.225                     0.48                     0                        NaN                      NaN                      NaN                      NaN                      NaN                      NaN                      NaN                      NaN                      NaN                      NaN                      NaN                      NaN                      NaN                      NaN                      NaN                      NaN                      NaN                      NaN                      NaN                      NaN                      NaN                      NaN                      NaN                      NaN                      NaN                      NaN                      NaN                      NaN                      NaN                      NaN                      NaN                      NaN                      NaN                      NaN                      NaN                      NaN                      NaN                      NaN                      NaN                      NaN                      NaN                      NaN                      NaN                      NaN                      NaN                      NaN                      0.0026920897893837475    0.021871047805519177     0.06876144234468058      0.03904786617880008      0.06247723339072317      0.29796527330460143      0.42846875567545384      0.1253281350264573       2.3620273755207651E-4    4.930548517108184E-4     1.2213612550015715E-4    1.1499539619058879E-4    8.676403772317428E-6     5.043968820255081E-7
0.275                     0.48                     0                        NaN                      NaN                      NaN                      NaN                      NaN                      NaN                      NaN                      NaN                      NaN                      NaN                      NaN                      NaN                      NaN                      NaN                      NaN                      NaN                      NaN                      NaN                      NaN                      NaN                      NaN                      NaN                      NaN                      NaN                      NaN                      NaN                      NaN                      NaN                      NaN                      NaN                      NaN                      NaN                      NaN                      NaN                      NaN                      NaN                      NaN                      NaN                      NaN                      NaN                      NaN                      NaN                      NaN                      NaN                      NaN                      NaN                      0.005151257179377354     0.03606481572138574      0.09633939469822159      0.05144744783121798      0.061816617127190304     0.2818572817447254       0.4055908539956631       0.11888155067693901      3.7402894391382307E-4    7.715587583668733E-4     1.9110419494887152E-4    1.7993876652509027E-4    1.3582406101183976E-5    7.940619267966787E-7
0.32500000000000007       0.48                     0                        NaN                      NaN                      NaN                      NaN                      NaN                      NaN                      NaN                      NaN                      NaN                      NaN                      NaN                      NaN                      NaN                      NaN                      NaN                      NaN                      NaN                      NaN                      NaN                      NaN                      NaN                      NaN                      NaN                      NaN                      NaN                      NaN                      NaN                      NaN                      NaN                      NaN                      NaN                      NaN                      NaN                      NaN                      NaN                      NaN                      NaN                      NaN                      NaN                      NaN                      NaN                      NaN                      NaN                      NaN                      NaN                      NaN                      0.011833766601990483     0.06659041961090034      0.14132011267099542      0.06720242034376876      0.06722492311991086      0.256029347086238        0.3563093205538653       0.10318097205379696      -3.306235037301295E-4    -7.878112093607356E-4    -1.9537937428084295E-4   -1.8387452200738255E-4   -1.38078218983221E-5     -7.548336717041265E-7
0.37500000000000006       0.48                     0                        NaN                      NaN                      NaN                      NaN                      NaN                      NaN                      NaN                      NaN                      NaN                      NaN                      NaN                      NaN                      NaN                      NaN                      NaN                      NaN                      NaN                      NaN                      NaN                      NaN                      NaN                      NaN                      NaN                      NaN                      NaN                      NaN                      NaN                      NaN                      NaN                      NaN                      NaN                      NaN                      NaN                      NaN                      NaN                      NaN                      NaN                      NaN                      NaN                      NaN                      NaN                      NaN                      NaN                      NaN                      NaN                      NaN                      0.014343447774739428     0.07787057835673941      0.15759834275908535      0.07277421882208791      0.06931151020139412      0.24660625117069682      0.3381197410578502       0.0973639060925072       -7.254561203506508E-4    -0.001641465212469262    -4.0690967184557457E-4   -3.8301285051357137E-4   -2.881298847367087E-5    -1.6126815503487339E-6
0.42500000000000004       0.48                     0                        NaN                      NaN                      NaN                      NaN                      NaN                      NaN                      NaN                      NaN                      NaN                      NaN                      NaN                      NaN                      NaN                      NaN                      NaN                      NaN                      NaN                      NaN                      NaN                      NaN                      NaN                      NaN                      NaN                      NaN                      NaN                      NaN                      NaN                      NaN                      NaN                      NaN                      NaN                      NaN                      NaN                      NaN                      NaN                      NaN                      NaN                      NaN                      NaN                      NaN                      NaN                      NaN                      NaN                      NaN                      NaN                      NaN                      0.028104985637716046     0.123940117496695        0.20249622019978358      0.0784162367351041       0.0711748055308542       0.20315351925674732      0.27055622130390455      0.0764519875104729       0.002039987648785389     0.0038425531405938233    9.509235658989157E-4     8.956603771708924E-4     6.784396009830778E-5     4.143432856648099E-6
0.47500000000000003       0.48                     2412334.815876053        1073.1500000000005       1073.1500000000005       1073.1500000000005       1073.1500000000005       1073.1500000000005       1073.1500000000005       1073.1500000000005       1073.1500000000005       1073.1500000000005       1073.1500000000005       1073.1500000000005       1073.1500000000005       1073.1500000000005       1073.1500000000005       1073.1500000000005       1073.1500000000005       1073.1500000000005       1073.1500000000005       1073.1500000000005       1073.1500000000005       1073.1500000000005       1073.1500000000005       1073.1500000000005       1073.1500000000005       1073.1500000000005       1073.1500000000005       1073.1500000000005       1073.1500000000005       1073.1500000000005       1073.1500000000005       1073.1500000000005       1073.1500000000005       1073.1500000000005       1073.1500000000005       1073.1500000000005       1073.1500000000005       1073.1500000000005       1073.1500000000005       1073.1500000000005       1073.1500000000005       1073.1500000000005       1073.1500000000005       1073.1500000000005       1073.1500000000005       1073.1500000000005       1073.1500000000005       0.04334803788779502      0.1749693265312953       0.2522276309302245       0.08466565265796844      0.07323869608924156      0.15502283287794008      0.19571907213765002      0.0532887719767695       0.005103148487880605     0.009916959876851681     0.002454935922360676     0.0023119906604896464    1.749066250479636E-4     1.0519228464444136E-5
0.525                     0.48                     2412334.8158760522       1073.15                  1073.15                  1073.15                  1073.15                  1073.15                  1073.15                  1073.15                  1073.15                  1073.15                  1073.15                  1073.15                  1073.15                  1073.15                  1073.15                  1073.15                  1073.15                  1073.15                  1073.15                  1073.15                  1073.15                  1073.15                  1073.15                  1073.15                  1073.15                  1073.15                  1073.15                  1073.15                  1073.15                  1073.15                  1073.15                  1073.15                  1073.15                  1073.15                  1073.15                  1073.15                  1073.15                  1073.15                  1073.15                  1073.15                  1073.15                  1073.15                  1073.15                  1073.15                  1073.15                  1073.15                  1073.15                  0.043348037887794996     0.1749693265312952       0.2522276309302244       0.08466565265796841      0.07323869608924152      0.15502283287794003      0.1957190721376499       0.053288771976769476     0.005103148487880603     0.009916959876851676     0.0024549359223606745    0.0023119906604896455    1.749066250479635E-4     1.051922846444413E-5
0.5750000000000001        0.48                     1470510.360748268        1073.1499999999999       1073.1499999999999       1073.1499999999999       1073.1499999999999       1073.1499999999999       1073.1499999999999       1073.1499999999999       1073.1499999999999       1073.1499999999999       1073.1499999999999       1073.1499999999999       1073.1499999999999       1073.1499999999999       1073.1499999999999       1073.1499999999999       1073.1499999999999       1073.1499999999999       1073.1499999999999       1073.1499999999999       1073.1499999999999       1073.1499999999999       1073.1499999999999       1073.1499999999999       1073.1499999999999       1073.1499999999999       1073.1499999999999       1073.1499999999999       1073.1499999999999       1073.1499999999999       1073.1499999999999       1073.1499999999999       1073.1499999999999       1073.1499999999999       1073.1499999999999       1073.1499999999999       1073.1499999999999       1073.1499999999999       1073.1499999999999       1073.1499999999999       1073.1499999999999       1073.1499999999999       1073.1499999999999       1073.1499999999999       1073.1499999999999       1073.1499999999999       1073.1499999999999       0.05991079551398485      0.23374431658035422      0.29281761349200675      0.07998835050231916      0.06854734613744268      0.09443655790007648      0.11137366491855055      0.028428988782492844     0.008151400393499581     0.01568492824631403      0.0038824285897431907    0.0036564942781592115    2.7672559521318534E-4    1.6721933863178036E-5
0.6250000000000001        0.48                     1808748.2304491946       1073.1500000000005       1073.1500000000005       1073.1500000000005       1073.1500000000005       1073.1500000000005       1073.1500000000005       1073.1500000000005       1073.1500000000005       1073.1500000000005       1073.1500000000005       1073.1500000000005       1073.1500000000005       1073.1500000000005       1073.1500000000005       1073.1500000000005       1073.1500000000005       1073.1500000000005       1073.1500000000005       1073.1500000000005       1073.1500000000005       1073.1500000000005       1073.1500000000005       1073.1500000000005       1073.1500000000005       1073.1500000000005       1073.1500000000005       1073.1500000000005       1073.1500000000005       1073.1500000000005       1073.1500000000005       1073.1500000000005       1073.1500000000005       1073.1500000000005       1073.1500000000005       1073.1500000000005       1073.1500000000005       1073.1500000000005       1073.1500000000005       1073.1500000000005       1073.1500000000005       1073.1500000000005       1073.1500000000005       1073.1500000000005       1073.1500000000005       1073.1500000000005       1073.1500000000005       0.03595130604101952      0.14893637159660505      0.2190846649034034       0.06967198524259269      0.06433960992644054      0.11435076584618159      0.1451855621271737       0.03986833223217911      0.00440879854609954      0.008491270283387004     0.002101829305044815     0.0019795086372915317    1.4980501109598045E-4    9.048361156864315E-6
0.675                     0.48                     1874191.1198778595       1073.1500000000005       1073.1500000000005       1073.1500000000005       1073.1500000000005       1073.1500000000005       1073.1500000000005       1073.1500000000005       1073.1500000000005       1073.1500000000005       1073.1500000000005       1073.1500000000005       1073.1500000000005       1073.1500000000005       1073.1500000000005       1073.1500000000005       1073.1500000000005       1073.1500000000005       1073.1500000000005       1073.1500000000005       1073.1500000000005       1073.1500000000005       1073.1500000000005       1073.1500000000005       1073.1500000000005       1073.1500000000005       1073.1500000000005       1073.1500000000005       1073.1500000000005       1073.1500000000005       1073.1500000000005       1073.1500000000005       1073.1500000000005       1073.1500000000005       1073.1500000000005       1073.1500000000005       1073.1500000000005       1073.1500000000005       1073.1500000000005       1073.1500000000005       1073.1500000000005       1073.1500000000005       1073.1500000000005       1073.1500000000005       1073.1500000000005       1073.1500000000005       1073.1500000000005       0.03134413339182706      0.1326285585742991       0.20491245865470506      0.06769497353633154      0.06353483092235053      0.11820672728707314      0.15172196886427605      0.042077656145362005     0.003688870760251988     0.007107548373122605     0.001759325758735752     0.0016569354383063385    1.2539142226359874E-4    7.572297761287591E-6
0.7250000000000001        0.48                     1874191.1198778604       1073.1500000000003       1073.1500000000003       1073.1500000000003       1073.1500000000003       1073.1500000000003       1073.1500000000003       1073.1500000000003       1073.1500000000003       1073.1500000000003       1073.1500000000003       1073.1500000000003       1073.1500000000003       1073.1500000000003       1073.1500000000003       1073.1500000000003       1073.1500000000003       1073.1500000000003       1073.1500000000003       1073.1500000000003       1073.1500000000003       1073.1500000000003       1073.1500000000003       1073.1500000000003       1073.1500000000003       1073.1500000000003       1073.1500000000003       1073.1500000000003       1073.1500000000003       1073.1500000000003       1073.1500000000003       1073.1500000000003       1073.1500000000003       1073.1500000000003       1073.1500000000003       1073.1500000000003       1073.1500000000003       1073.1500000000003       1073.1500000000003       1073.1500000000003       1073.1500000000003       1073.1500000000003       1073.1500000000003       1073.1500000000003       1073.1500000000003       1073.1500000000003       1073.1500000000003       0.03134413339182708      0.13262855857429914      0.20491245865470517      0.06769497353633158      0.06353483092235057      0.1182067272870732       0.15172196886427614      0.042077656145362026     0.00368887076025199      0.007107548373122608     0.0017593257587357528    0.0016569354383063394    1.253914222635988E-4     7.572297761287595E-6
0.775                     0.48                     0                        NaN                      NaN                      NaN                      NaN                      NaN                      NaN                      NaN                      NaN                      NaN                      NaN                      NaN                      NaN                      NaN                      NaN                      NaN                      NaN                      NaN                      NaN                      NaN                      NaN                      NaN                      NaN                      NaN                      NaN                      NaN                      NaN                      NaN                      NaN                      NaN                      NaN                      NaN                      NaN                      NaN                      NaN                      NaN                      NaN                      NaN                      NaN                      NaN                      NaN                      NaN                      NaN                      NaN                      NaN                      NaN                      NaN                      0.03134413339182709      0.1326285585742992       0.20491245865470523      0.0676949735363316       0.06353483092235059      0.11820672728707322      0.15172196886427616      0.04207765614536204      0.0036888707602519915    0.007107548373122612     0.0017593257587357536    0.00165693543830634      1.2539142226359885E-4    7.5722977612875975E-6
0.8250000000000001        0.48                     0                        NaN                      NaN                      NaN                      NaN                      NaN                      NaN                      NaN                      NaN                      NaN                      NaN                      NaN                      NaN                      NaN                      NaN                      NaN                      NaN                      NaN                      NaN                      NaN                      NaN                      NaN                      NaN                      NaN                      NaN                      NaN                      NaN                      NaN                      NaN                      NaN                      NaN                      NaN                      NaN                      NaN                      NaN                      NaN                      NaN                      NaN                      NaN                      NaN                      NaN                      NaN                      NaN                      NaN                      NaN                      NaN                      NaN                      0.031344133391827095     0.1326285585742992       0.20491245865470528      0.06769497353633161      0.0635348309223506       0.11820672728707325      0.1517219688642762       0.04207765614536205      0.0036888707602519923    0.007107548373122612     0.0017593257587357536    0.0016569354383063404    1.2539142226359885E-4    7.572297761287599E-6