% Model:              eigen_1st.mph
% Version:            COMSOL 5.3.1.229
% Date:               Mar 22 2018, 16:33
% Dimension:          2
% Nodes:              1330
% Expressions:        61
% Description:        , , , , , , , , , , , , , , , , , , , , , , , , , , , , , , , , , , , , , , , , , , , , , , , , , , , , , , , , , , , , 
% Length unit:        m
% cpl1x                   cpl1y                    PdensityN (W/m^3) @ lambda=1 Tp221 (K) @ lambda=1     Tp231 (K) @ lambda=1     Tp241 (K) @ lambda=1     Tp31 (K) @ lambda=1      Tp12 (K) @ lambda=1      Tp212 (K) @ lambda=1     Tp222 (K) @ lambda=1     Tp232 (K) @ lambda=1     Tp242 (K) @ lambda=1     Tp32 (K) @ lambda=1      Tp13 (K) @ lambda=1      Tp213 (K) @ lambda=1     Tp223 (K) @ lambda=1     Tp233 (K) @ lambda=1     Tp243 (K) @ lambda=1     Tp33 (K) @ lambda=1      Tp14 (K) @ lambda=1      Tp214 (K) @ lambda=1     Tp224 (K) @ lambda=1     Tp234 (K) @ lambda=1     Tp244 (K) @ lambda=1     Tp34 (K) @ lambda=1      Tp15 (K) @ lambda=1      Tp215 (K) @ lambda=1     Tp225 (K) @ lambda=1     Tp235 (K) @ lambda=1     Tp245 (K) @ lambda=1     Tp35 (K) @ lambda=1      Tp16 (K) @ lambda=1      Tp216 (K) @ lambda=1     Tp226 (K) @ lambda=1     Tp236 (K) @ lambda=1     Tp246 (K) @ lambda=1     Tp36 (K) @ lambda=1      Tp17 (K) @ lambda=1      Tp217 (K) @ lambda=1     Tp227 (K) @ lambda=1     Tp237 (K) @ lambda=1     Tp247 (K) @ lambda=1     Tp37 (K) @ lambda=1      Tp18 (K) @ lambda=1      Tp218 (K) @ lambda=1     Tp228 (K) @ lambda=1     Tp238 (K) @ lambda=1     Tp248 (K) @ lambda=1     Tp38 (K) @ lambda=1      Flux1 (1/(m^2*s)) @ lambda=1 Flux2 (1/(m^2*s)) @ lambda=1 Flux3 (1/(m^2*s)) @ lambda=1 Flux4 (1/(m^2*s)) @ lambda=1 Flux5 (1/(m^2*s)) @ lambda=1 Flux6 (1/(m^2*s)) @ lambda=1 Flux7 (1/(m^2*s)) @ lambda=1 Flux8 (1/(m^2*s)) @ lambda=1 Conc1 (1/(m^2*s)) @ lambda=1 Conc2 (1/(m^2*s)) @ lambda=1 Conc3 (1/(m^2*s)) @ lambda=1 Conc4 (1/(m^2*s)) @ lambda=1 Conc5 (1/(m^2*s)) @ lambda=1 Conc6 (1/(m^2*s)) @ lambda=1
0.025                     0.48                     0                        NaN                      NaN                      NaN                      NaN                      NaN                      NaN                      NaN                      NaN                      NaN                      NaN                      NaN                      NaN                      NaN                      NaN                      NaN                      NaN                      NaN                      NaN                      NaN                      NaN                      NaN                      NaN                      NaN                      NaN                      NaN                      NaN                      NaN                      NaN                      NaN                      NaN                      NaN                      NaN                      NaN                      NaN                      NaN                      NaN                      NaN                      NaN                      NaN                      NaN                      NaN                      NaN                      NaN                      NaN                      NaN                      NaN                      6.210371603055641E-4     0.006078648198602061     0.026868622248082404     0.017153574675970493     0.07058105293879502      0.32220594230073335      0.4505894723021923       0.13000677107530093      -1.0558579029080135E-5   -1.846309661595072E-5    -4.677383655569802E-6    -4.32707753949166E-6     -3.314161313254974E-7    -2.157425010212588E-8
0.07500000000000001       0.48                     0                        NaN                      NaN                      NaN                      NaN                      NaN                      NaN                      NaN                      NaN                      NaN                      NaN                      NaN                      NaN                      NaN                      NaN                      NaN                      NaN                      NaN                      NaN                      NaN                      NaN                      NaN                      NaN                      NaN                      NaN                      NaN                      NaN                      NaN                      NaN                      NaN                      NaN                      NaN                      NaN                      NaN                      NaN                      NaN                      NaN                      NaN                      NaN                      NaN                      NaN                      NaN                      NaN                      NaN                      NaN                      NaN                      NaN                      8.074333245357628E-4     0.007592780504807157     0.031694713474267174     0.019848837692298258     0.0708676940334831       0.3198650128453202       0.4471130015115463       0.1290555414754173       2.829590496108302E-6     5.342168714519363E-6     1.3544988988179286E-6    1.2528525479355077E-6    9.569248857493735E-8     5.9743507760962955E-9
0.125                     0.48                     0                        NaN                      NaN                      NaN                      NaN                      NaN                      NaN                      NaN                      NaN                      NaN                      NaN                      NaN                      NaN                      NaN                      NaN                      NaN                      NaN                      NaN                      NaN                      NaN                      NaN                      NaN                      NaN                      NaN                      NaN                      NaN                      NaN                      NaN                      NaN                      NaN                      NaN                      NaN                      NaN                      NaN                      NaN                      NaN                      NaN                      NaN                      NaN                      NaN                      NaN                      NaN                      NaN                      NaN                      NaN                      NaN                      NaN                      0.0010088272360724041    0.009110546123633467     0.036102557068007385     0.02223239423203281      0.07073401858392761      0.3175109250185223       0.44411410633071197      0.12828728267953546      1.1606673875337446E-5    2.1917000567148352E-5    5.557053934220396E-6     5.1401364914624195E-6    3.9258372990903884E-7    2.4540930644431456E-8
0.17500000000000002       0.48                     0                        NaN                      NaN                      NaN                      NaN                      NaN                      NaN                      NaN                      NaN                      NaN                      NaN                      NaN                      NaN                      NaN                      NaN                      NaN                      NaN                      NaN                      NaN                      NaN                      NaN                      NaN                      NaN                      NaN                      NaN                      NaN                      NaN                      NaN                      NaN                      NaN                      NaN                      NaN                      NaN                      NaN                      NaN                      NaN                      NaN                      NaN                      NaN                      NaN                      NaN                      NaN                      NaN                      NaN                      NaN                      NaN                      NaN                      0.0016287040808086934    0.013749404627927148     0.04926811401943216      0.029338135807087763     0.06706740913922417      0.30890449679734316      0.43745165127434704      0.1271395562155216       8.48518645943724E-6      1.492635346220986E-5     3.7812545535139282E-6    3.4980948187724814E-6    2.679483067107824E-7     1.7409834236344544E-8
0.225                     0.48                     0                        NaN                      NaN                      NaN                      NaN                      NaN                      NaN                      NaN                      NaN                      NaN                      NaN                      NaN                      NaN                      NaN                      NaN                      NaN                      NaN                      NaN                      NaN                      NaN                      NaN                      NaN                      NaN                      NaN                      NaN                      NaN                      NaN                      NaN                      NaN                      NaN                      NaN                      NaN                      NaN                      NaN                      NaN                      NaN                      NaN                      NaN                      NaN                      NaN                      NaN                      NaN                      NaN                      NaN                      NaN                      NaN                      NaN                      0.002683650963046694     0.021600803211949893     0.06801212905694615      0.03880998674824774      0.06349912780500226      0.29762636857670965      0.4261858256808321       0.12450712954994365      2.271115101849067E-4     4.7804215574061515E-4    1.2135435182881085E-4    1.1222776540655774E-4    8.537540076582118E-6     5.042666023091419E-7
0.275                     0.48                     0                        NaN                      NaN                      NaN                      NaN                      NaN                      NaN                      NaN                      NaN                      NaN                      NaN                      NaN                      NaN                      NaN                      NaN                      NaN                      NaN                      NaN                      NaN                      NaN                      NaN                      NaN                      NaN                      NaN                      NaN                      NaN                      NaN                      NaN                      NaN                      NaN                      NaN                      NaN                      NaN                      NaN                      NaN                      NaN                      NaN                      NaN                      NaN                      NaN                      NaN                      NaN                      NaN                      NaN                      NaN                      NaN                      NaN                      0.005136041711759447     0.03565427239565496      0.09539947271487104      0.05112255545980588      0.061876851810853714     0.2815494573401691       0.4044755840598518       0.11843513711208205      3.5977387579970194E-4    7.483798355449284E-4     1.8995955731702759E-4    1.7567671257584354E-4    1.336945182518714E-5     7.943005193064328E-7
0.32500000000000007       0.48                     0                        NaN                      NaN                      NaN                      NaN                      NaN                      NaN                      NaN                      NaN                      NaN                      NaN                      NaN                      NaN                      NaN                      NaN                      NaN                      NaN                      NaN                      NaN                      NaN                      NaN                      NaN                      NaN                      NaN                      NaN                      NaN                      NaN                      NaN                      NaN                      NaN                      NaN                      NaN                      NaN                      NaN                      NaN                      NaN                      NaN                      NaN                      NaN                      NaN                      NaN                      NaN                      NaN                      NaN                      NaN                      NaN                      NaN                      0.011801334307019792     0.06578799922922539      0.14011468999686566      0.06696429336531007      0.06879152731648375      0.25581707657876274      0.35449095523472796      0.10251350216231868      -3.1595285486262767E-4   -7.605645621459405E-4    -1.9331626745584015E-4   -1.7874137584322674E-4   -1.3540899025850185E-5   -7.49457241981373E-7
0.37500000000000006       0.48                     0                        NaN                      NaN                      NaN                      NaN                      NaN                      NaN                      NaN                      NaN                      NaN                      NaN                      NaN                      NaN                      NaN                      NaN                      NaN                      NaN                      NaN                      NaN                      NaN                      NaN                      NaN                      NaN                      NaN                      NaN                      NaN                      NaN                      NaN                      NaN                      NaN                      NaN                      NaN                      NaN                      NaN                      NaN                      NaN                      NaN                      NaN                      NaN                      NaN                      NaN                      NaN                      NaN                      NaN                      NaN                      NaN                      NaN                      0.014304460251314103     0.07691995429269684      0.15629716870143853      0.07257287260378228      0.07149430681144024      0.24641898311058627      0.3359952845603923       0.09660012420208956      -6.951709212853555E-4    -0.0015876721094003352   -4.033566440866664E-4    -3.729743989609296E-4    -2.829969169632169E-5    -1.605936094542011E-6
0.42500000000000004       0.48                     0                        NaN                      NaN                      NaN                      NaN                      NaN                      NaN                      NaN                      NaN                      NaN                      NaN                      NaN                      NaN                      NaN                      NaN                      NaN                      NaN                      NaN                      NaN                      NaN                      NaN                      NaN                      NaN                      NaN                      NaN                      NaN                      NaN                      NaN                      NaN                      NaN                      NaN                      NaN                      NaN                      NaN                      NaN                      NaN                      NaN                      NaN                      NaN                      NaN                      NaN                      NaN                      NaN                      NaN                      NaN                      NaN                      NaN                      0.028025871613127803     0.12278162240873353      0.20100405913942243      0.07820127972555678      0.07429309146137872      0.2046703718466659       0.26724193240834304      0.07486334794016271      0.0019715461157129507    0.003744100126068945     9.494879966617198E-4     8.782275236982308E-4     6.703879961427488E-5     4.1689583168571645E-6
0.47500000000000003       0.48                     2396128.7529554856       1073.1500000000005       1073.1500000000005       1073.1500000000005       1073.1500000000005       1073.1500000000005       1073.1500000000005       1073.1500000000005       1073.1500000000005       1073.1500000000005       1073.1500000000005       1073.1500000000005       1073.1500000000005       1073.1500000000005       1073.1500000000005       1073.1500000000005       1073.1500000000005       1073.1500000000005       1073.1500000000005       1073.1500000000005       1073.1500000000005       1073.1500000000005       1073.1500000000005       1073.1500000000005       1073.1500000000005       1073.1500000000005       1073.1500000000005       1073.1500000000005       1073.1500000000005       1073.1500000000005       1073.1500000000005       1073.1500000000005       1073.1500000000005       1073.1500000000005       1073.1500000000005       1073.1500000000005       1073.1500000000005       1073.1500000000005       1073.1500000000005       1073.1500000000005       1073.1500000000005       1073.1500000000005       1073.1500000000005       1073.1500000000005       1073.1500000000005       1073.1500000000005       1073.1500000000005       0.043224477496824655     0.17358058182222155      0.2505239219389237       0.0844356195715954       0.07739318253263218      0.15842726521130557      0.19108685805133457      0.05078647371230216      0.004925351681332246     0.009649870511617954     0.002447974702907396     0.0022641290466525535    1.72641067250429E-4      1.0565555712303093E-5
0.525                     0.48                     2396128.7529554847       1073.15                  1073.15                  1073.15                  1073.15                  1073.15                  1073.15                  1073.15                  1073.15                  1073.15                  1073.15                  1073.15                  1073.15                  1073.15                  1073.15                  1073.15                  1073.15                  1073.15                  1073.15                  1073.15                  1073.15                  1073.15                  1073.15                  1073.15                  1073.15                  1073.15                  1073.15                  1073.15                  1073.15                  1073.15                  1073.15                  1073.15                  1073.15                  1073.15                  1073.15                  1073.15                  1073.15                  1073.15                  1073.15                  1073.15                  1073.15                  1073.15                  1073.15                  1073.15                  1073.15                  1073.15                  1073.15                  0.043224477496824634     0.17358058182222147      0.2505239219389236       0.08443561957159536      0.07739318253263215      0.1584272652113055       0.1910868580513345       0.05078647371230213      0.004925351681332244     0.009649870511617949     0.0024479747029073945    0.0022641290466525526    1.7264106725042893E-4    1.0565555712303088E-5
0.5750000000000001        0.48                     1458047.1311538545       1073.1499999999996       1073.1499999999996       1073.1499999999996       1073.1499999999996       1073.1499999999996       1073.1499999999996       1073.1499999999996       1073.1499999999996       1073.1499999999996       1073.1499999999996       1073.1499999999996       1073.1499999999996       1073.1499999999996       1073.1499999999996       1073.1499999999996       1073.1499999999996       1073.1499999999996       1073.1499999999996       1073.1499999999996       1073.1499999999996       1073.1499999999996       1073.1499999999996       1073.1499999999996       1073.1499999999996       1073.1499999999996       1073.1499999999996       1073.1499999999996       1073.1499999999996       1073.1499999999996       1073.1499999999996       1073.1499999999996       1073.1499999999996       1073.1499999999996       1073.1499999999996       1073.1499999999996       1073.1499999999996       1073.1499999999996       1073.1499999999996       1073.1499999999996       1073.1499999999996       1073.1499999999996       1073.1499999999996       1073.1499999999996       1073.1499999999996       1073.1499999999996       1073.1499999999996       0.059941427270856454     0.23267165986926636      0.29094405399777534      0.07952860341958587      0.0722638811788701       0.09934520682909698      0.1066225083439691       0.025773087250388706     0.00793260574221128      0.015388156427177113     0.0039032725382848717    0.003610190678371655     2.753699740347097E-4     1.6936538373326112E-5
0.6250000000000001        0.48                     1804612.9187664473       1073.1500000000008       1073.1500000000008       1073.1500000000008       1073.1500000000008       1073.1500000000008       1073.1500000000008       1073.1500000000008       1073.1500000000008       1073.1500000000008       1073.1500000000008       1073.1500000000008       1073.1500000000008       1073.1500000000008       1073.1500000000008       1073.1500000000008       1073.1500000000008       1073.1500000000008       1073.1500000000008       1073.1500000000008       1073.1500000000008       1073.1500000000008       1073.1500000000008       1073.1500000000008       1073.1500000000008       1073.1500000000008       1073.1500000000008       1073.1500000000008       1073.1500000000008       1073.1500000000008       1073.1500000000008       1073.1500000000008       1073.1500000000008       1073.1500000000008       1073.1500000000008       1073.1500000000008       1073.1500000000008       1073.1500000000008       1073.1500000000008       1073.1500000000008       1073.1500000000008       1073.1500000000008       1073.1500000000008       1073.1500000000008       1073.1500000000008       1073.1500000000008       1073.1500000000008       0.03607244524316954      0.14889496924750262      0.21826631674176294      0.06948472034342996      0.06682779533561944      0.11982036138744659      0.14153105566152155      0.037220083276084025     0.004249444580947512     0.008251048676007481     0.0020929339636097666    0.0019357805679704528    1.476484714532688E-4     9.076801703432838E-6
0.675                     0.48                     1870961.1560603871       1073.1500000000005       1073.1500000000005       1073.1500000000005       1073.1500000000005       1073.1500000000005       1073.1500000000005       1073.1500000000005       1073.1500000000005       1073.1500000000005       1073.1500000000005       1073.1500000000005       1073.1500000000005       1073.1500000000005       1073.1500000000005       1073.1500000000005       1073.1500000000005       1073.1500000000005       1073.1500000000005       1073.1500000000005       1073.1500000000005       1073.1500000000005       1073.1500000000005       1073.1500000000005       1073.1500000000005       1073.1500000000005       1073.1500000000005       1073.1500000000005       1073.1500000000005       1073.1500000000005       1073.1500000000005       1073.1500000000005       1073.1500000000005       1073.1500000000005       1073.1500000000005       1073.1500000000005       1073.1500000000005       1073.1500000000005       1073.1500000000005       1073.1500000000005       1073.1500000000005       1073.1500000000005       1073.1500000000005       1073.1500000000005       1073.1500000000005       1073.1500000000005       1073.1500000000005       0.03150325998437312      0.13285778323398753      0.20435387124412624      0.06756214439001819      0.06578725395299174      0.12374025562733158      0.1482140319432178       0.039411500840013595     0.0035443817191359527    0.006884801966452067     0.0017463833448972024    0.0016152505475734613    1.2319891973643478E-4    7.572222693929691E-6
0.7250000000000001        0.48                     1870961.156060388        1073.1500000000003       1073.1500000000003       1073.1500000000003       1073.1500000000003       1073.1500000000003       1073.1500000000003       1073.1500000000003       1073.1500000000003       1073.1500000000003       1073.1500000000003       1073.1500000000003       1073.1500000000003       1073.1500000000003       1073.1500000000003       1073.1500000000003       1073.1500000000003       1073.1500000000003       1073.1500000000003       1073.1500000000003       1073.1500000000003       1073.1500000000003       1073.1500000000003       1073.1500000000003       1073.1500000000003       1073.1500000000003       1073.1500000000003       1073.1500000000003       1073.1500000000003       1073.1500000000003       1073.1500000000003       1073.1500000000003       1073.1500000000003       1073.1500000000003       1073.1500000000003       1073.1500000000003       1073.1500000000003       1073.1500000000003       1073.1500000000003       1073.1500000000003       1073.1500000000003       1073.1500000000003       1073.1500000000003       1073.1500000000003       1073.1500000000003       1073.1500000000003       1073.1500000000003       0.03150325998437314      0.1328577832339876       0.20435387124412635      0.06756214439001823      0.06578725395299177      0.12374025562733165      0.1482140319432179       0.039411500840013616     0.003544381719135955     0.0068848019664520714    0.0017463833448972035    0.0016152505475734622    1.2319891973643483E-4    7.572222693929695E-6
0.775                     0.48                     0                        NaN                      NaN                      NaN                      NaN                      NaN                      NaN                      NaN                      NaN                      NaN                      NaN                      NaN                      NaN                      NaN                      NaN                      NaN                      NaN                      NaN                      NaN                      NaN                      NaN                      NaN                      NaN                      NaN                      NaN                      NaN                      NaN                      NaN                      NaN                      NaN                      NaN                      NaN                      NaN                      NaN                      NaN                      NaN                      NaN                      NaN                      NaN                      NaN                      NaN                      NaN                      NaN                      NaN                      NaN                      NaN                      NaN                      0.03150325998437315      0.13285778323398764      0.20435387124412638      0.06756214439001826      0.0657872539529918       0.12374025562733168      0.14821403194321792      0.03941150084001362      0.0035443817191359557    0.006884801966452074     0.0017463833448972041    0.0016152505475734629    1.2319891973643486E-4    7.572222693929698E-6
0.8250000000000001        0.48                     0                        NaN                      NaN                      NaN                      NaN                      NaN                      NaN                      NaN                      NaN                      NaN                      NaN                      NaN                      NaN                      NaN                      NaN                      NaN                      NaN                      NaN                      NaN                      NaN                      NaN                      NaN                      NaN                      NaN                      NaN                      NaN                      NaN                      NaN                      NaN                      NaN                      NaN                      NaN                      NaN                      NaN                      NaN                      NaN                      NaN                      NaN                      NaN                      NaN                      NaN                      NaN                      NaN                      NaN                      NaN                      NaN                      NaN                      0.03150325998437315      0.13285778323398767      0.20435387124412643      0.06756214439001826      0.06578725395299181      0.12374025562733171      0.14821403194321794      0.03941150084001363      0.0035443817191359566    0.006884801966452075     0.0017463833448972043    0.0016152505475734633    1.231989197364349E-4     7.572222693929699E-6