% Model:              eigen_1st.mph
% Version:            COMSOL 5.3.1.180
% Date:               Mar 12 2018, 16:17
% Dimension:          2
% Nodes:              1330
% Expressions:        61
% Description:        , , , , , , , , , , , , , , , , , , , , , , , , , , , , , , , , , , , , , , , , , , , , , , , , , , , , , , , , , , , , 
% Length unit:        m
% cpl1x                   cpl1y                    PdensityN (W/m^3) @ lambda=1 Tp221 (K) @ lambda=1     Tp231 (K) @ lambda=1     Tp241 (K) @ lambda=1     Tp31 (K) @ lambda=1      Tp12 (K) @ lambda=1      Tp212 (K) @ lambda=1     Tp222 (K) @ lambda=1     Tp232 (K) @ lambda=1     Tp242 (K) @ lambda=1     Tp32 (K) @ lambda=1      Tp13 (K) @ lambda=1      Tp213 (K) @ lambda=1     Tp223 (K) @ lambda=1     Tp233 (K) @ lambda=1     Tp243 (K) @ lambda=1     Tp33 (K) @ lambda=1      Tp14 (K) @ lambda=1      Tp214 (K) @ lambda=1     Tp224 (K) @ lambda=1     Tp234 (K) @ lambda=1     Tp244 (K) @ lambda=1     Tp34 (K) @ lambda=1      Tp15 (K) @ lambda=1      Tp215 (K) @ lambda=1     Tp225 (K) @ lambda=1     Tp235 (K) @ lambda=1     Tp245 (K) @ lambda=1     Tp35 (K) @ lambda=1      Tp16 (K) @ lambda=1      Tp216 (K) @ lambda=1     Tp226 (K) @ lambda=1     Tp236 (K) @ lambda=1     Tp246 (K) @ lambda=1     Tp36 (K) @ lambda=1      Tp17 (K) @ lambda=1      Tp217 (K) @ lambda=1     Tp227 (K) @ lambda=1     Tp237 (K) @ lambda=1     Tp247 (K) @ lambda=1     Tp37 (K) @ lambda=1      Tp18 (K) @ lambda=1      Tp218 (K) @ lambda=1     Tp228 (K) @ lambda=1     Tp238 (K) @ lambda=1     Tp248 (K) @ lambda=1     Tp38 (K) @ lambda=1      Flux1 (1/(m^2*s)) @ lambda=1 Flux2 (1/(m^2*s)) @ lambda=1 Flux3 (1/(m^2*s)) @ lambda=1 Flux4 (1/(m^2*s)) @ lambda=1 Flux5 (1/(m^2*s)) @ lambda=1 Flux6 (1/(m^2*s)) @ lambda=1 Flux7 (1/(m^2*s)) @ lambda=1 Flux8 (1/(m^2*s)) @ lambda=1 Conc1 (1/(m^2*s)) @ lambda=1 Conc2 (1/(m^2*s)) @ lambda=1 Conc3 (1/(m^2*s)) @ lambda=1 Conc4 (1/(m^2*s)) @ lambda=1 Conc5 (1/(m^2*s)) @ lambda=1 Conc6 (1/(m^2*s)) @ lambda=1
0.025                     0.48                     0                        NaN                      NaN                      NaN                      NaN                      NaN                      NaN                      NaN                      NaN                      NaN                      NaN                      NaN                      NaN                      NaN                      NaN                      NaN                      NaN                      NaN                      NaN                      NaN                      NaN                      NaN                      NaN                      NaN                      NaN                      NaN                      NaN                      NaN                      NaN                      NaN                      NaN                      NaN                      NaN                      NaN                      NaN                      NaN                      NaN                      NaN                      NaN                      NaN                      NaN                      NaN                      NaN                      NaN                      NaN                      NaN                      NaN                      6.048903024396662E-4     0.005955198957373373     0.026482385739776612     0.016938616811690056     0.07051697194184345      0.3221471295521776       0.4505074386855717       0.12998054247808602      -8.284581274800683E-6    -1.4655626181733682E-5   -3.7132932168177354E-6   -3.4351016603362027E-6   -2.629893805086559E-7    -1.701111638060495E-8
0.07500000000000001       0.48                     0                        NaN                      NaN                      NaN                      NaN                      NaN                      NaN                      NaN                      NaN                      NaN                      NaN                      NaN                      NaN                      NaN                      NaN                      NaN                      NaN                      NaN                      NaN                      NaN                      NaN                      NaN                      NaN                      NaN                      NaN                      NaN                      NaN                      NaN                      NaN                      NaN                      NaN                      NaN                      NaN                      NaN                      NaN                      NaN                      NaN                      NaN                      NaN                      NaN                      NaN                      NaN                      NaN                      NaN                      NaN                      NaN                      NaN                      8.008923371720658E-4     0.007565854574120998     0.03165980493570065      0.019835983572460303     0.0709069355357275       0.3196534074769991       0.4466831302894379       0.1289208745930236       5.110534896643633E-6     8.651311081493694E-6     2.190804668345759E-6     2.026855192396369E-6     1.5545086170051404E-7    1.0297263845314371E-8
0.125                     0.48                     0                        NaN                      NaN                      NaN                      NaN                      NaN                      NaN                      NaN                      NaN                      NaN                      NaN                      NaN                      NaN                      NaN                      NaN                      NaN                      NaN                      NaN                      NaN                      NaN                      NaN                      NaN                      NaN                      NaN                      NaN                      NaN                      NaN                      NaN                      NaN                      NaN                      NaN                      NaN                      NaN                      NaN                      NaN                      NaN                      NaN                      NaN                      NaN                      NaN                      NaN                      NaN                      NaN                      NaN                      NaN                      NaN                      NaN                      9.322574972016216E-4     0.008541854047671344     0.03444483029392344      0.021331793310109197     0.07062527273806118      0.31806048956818284      0.44490180580232136      0.12849562460215969      1.161925614882565E-5     2.054873288314679E-5     5.2064158102521365E-6    4.8163698941931045E-6    3.687428136289583E-7     2.38541708880006E-8
0.17500000000000002       0.48                     0                        NaN                      NaN                      NaN                      NaN                      NaN                      NaN                      NaN                      NaN                      NaN                      NaN                      NaN                      NaN                      NaN                      NaN                      NaN                      NaN                      NaN                      NaN                      NaN                      NaN                      NaN                      NaN                      NaN                      NaN                      NaN                      NaN                      NaN                      NaN                      NaN                      NaN                      NaN                      NaN                      NaN                      NaN                      NaN                      NaN                      NaN                      NaN                      NaN                      NaN                      NaN                      NaN                      NaN                      NaN                      NaN                      NaN                      0.0016530384907141955    0.013825737912496742     0.04919912642440843      0.02922586393319576      0.06733610213420892      0.30879126799297113      0.4367765112672922       0.12687794770019742      -1.0563982916568301E-5   -2.2463880091229113E-5   -5.7024464409613415E-6   -5.273610584778921E-6    -4.012154139405824E-7    -2.364637258182636E-8
0.225                     0.48                     0                        NaN                      NaN                      NaN                      NaN                      NaN                      NaN                      NaN                      NaN                      NaN                      NaN                      NaN                      NaN                      NaN                      NaN                      NaN                      NaN                      NaN                      NaN                      NaN                      NaN                      NaN                      NaN                      NaN                      NaN                      NaN                      NaN                      NaN                      NaN                      NaN                      NaN                      NaN                      NaN                      NaN                      NaN                      NaN                      NaN                      NaN                      NaN                      NaN                      NaN                      NaN                      NaN                      NaN                      NaN                      NaN                      NaN                      0.0026874909763517974    0.021591755493998915     0.06786499180087296      0.038689593354167384     0.06368787952905146      0.29749379716999175      0.4256104747224187       0.12429202329278125      2.2171433364722711E-4    4.710471885806585E-4     1.1958989227004042E-4    1.105943034169321E-4     8.410637994616224E-6     4.944622348640427E-7
0.275                     0.48                     0                        NaN                      NaN                      NaN                      NaN                      NaN                      NaN                      NaN                      NaN                      NaN                      NaN                      NaN                      NaN                      NaN                      NaN                      NaN                      NaN                      NaN                      NaN                      NaN                      NaN                      NaN                      NaN                      NaN                      NaN                      NaN                      NaN                      NaN                      NaN                      NaN                      NaN                      NaN                      NaN                      NaN                      NaN                      NaN                      NaN                      NaN                      NaN                      NaN                      NaN                      NaN                      NaN                      NaN                      NaN                      NaN                      NaN                      0.0051954346802074326    0.03592572370463813      0.09573302993346314      0.05120699987799051      0.06189007611842931      0.280996368876788        0.4035129089519574       0.11813468898355008      3.6491259322099745E-4    7.615038515693738E-4     1.932960518493799E-4     1.7876155635244216E-4    1.360296302271056E-5     8.069837200764651E-7
0.32500000000000007       0.48                     0                        NaN                      NaN                      NaN                      NaN                      NaN                      NaN                      NaN                      NaN                      NaN                      NaN                      NaN                      NaN                      NaN                      NaN                      NaN                      NaN                      NaN                      NaN                      NaN                      NaN                      NaN                      NaN                      NaN                      NaN                      NaN                      NaN                      NaN                      NaN                      NaN                      NaN                      NaN                      NaN                      NaN                      NaN                      NaN                      NaN                      NaN                      NaN                      NaN                      NaN                      NaN                      NaN                      NaN                      NaN                      NaN                      NaN                      0.011880345962025026     0.06615101666189609      0.14058951788347668      0.06712651864047185      0.06870804317609591      0.25507911687724183      0.35339234152774734      0.10218812411066627      -3.2746662138587114E-4   -7.814859776629577E-4    -1.9861946256812245E-4   -1.8364693018690643E-4   -1.3915930426623686E-5   -7.732966982826763E-7
0.37500000000000006       0.48                     0                        NaN                      NaN                      NaN                      NaN                      NaN                      NaN                      NaN                      NaN                      NaN                      NaN                      NaN                      NaN                      NaN                      NaN                      NaN                      NaN                      NaN                      NaN                      NaN                      NaN                      NaN                      NaN                      NaN                      NaN                      NaN                      NaN                      NaN                      NaN                      NaN                      NaN                      NaN                      NaN                      NaN                      NaN                      NaN                      NaN                      NaN                      NaN                      NaN                      NaN                      NaN                      NaN                      NaN                      NaN                      NaN                      NaN                      0.01439908566234262      0.07734586458814253      0.1568535994285289       0.07276953410518468      0.07138575181208814      0.2455953954502876       0.3348027970812663       0.09625103550939164      -7.130745701696312E-4    -0.0016226803419237676   -4.122371851346778E-4    -3.811880682753884E-4    -2.89260693397751E-5     -1.6443209870700364E-6
0.42500000000000004       0.48                     0                        NaN                      NaN                      NaN                      NaN                      NaN                      NaN                      NaN                      NaN                      NaN                      NaN                      NaN                      NaN                      NaN                      NaN                      NaN                      NaN                      NaN                      NaN                      NaN                      NaN                      NaN                      NaN                      NaN                      NaN                      NaN                      NaN                      NaN                      NaN                      NaN                      NaN                      NaN                      NaN                      NaN                      NaN                      NaN                      NaN                      NaN                      NaN                      NaN                      NaN                      NaN                      NaN                      NaN                      NaN                      NaN                      NaN                      0.028016283769917154     0.12267895693766226      0.2008067930829143       0.07824085790004227      0.07417941994781066      0.20431160276250387      0.2667474389310594       0.07471911774957042      0.0019815010007114002    0.0037627265074523537    9.542109691955137E-4     8.825961187603793E-4     6.737240843215819E-5     4.189853620612952E-6
0.47500000000000003       0.48                     2396388.5251420555       1073.15                  1073.15                  1073.15                  1073.15                  1073.15                  1073.15                  1073.15                  1073.15                  1073.15                  1073.15                  1073.15                  1073.15                  1073.15                  1073.15                  1073.15                  1073.15                  1073.15                  1073.15                  1073.15                  1073.15                  1073.15                  1073.15                  1073.15                  1073.15                  1073.15                  1073.15                  1073.15                  1073.15                  1073.15                  1073.15                  1073.15                  1073.15                  1073.15                  1073.15                  1073.15                  1073.15                  1073.15                  1073.15                  1073.15                  1073.15                  1073.15                  1073.15                  1073.15                  1073.15                  1073.15                  1073.15                  0.04309945720010952      0.17289243614484134      0.24949181899372613      0.08430120343064526      0.0772738436805509       0.15858335528848191      0.19136550193313567      0.050869156304464376     0.0049661642431262105    0.009727905603738138     0.0024677656911220518    0.002282434464417702     1.7403801099026838E-4    1.0652113090918997E-5
0.525                     0.48                     2396388.525142054        1073.15                  1073.15                  1073.15                  1073.15                  1073.15                  1073.15                  1073.15                  1073.15                  1073.15                  1073.15                  1073.15                  1073.15                  1073.15                  1073.15                  1073.15                  1073.15                  1073.15                  1073.15                  1073.15                  1073.15                  1073.15                  1073.15                  1073.15                  1073.15                  1073.15                  1073.15                  1073.15                  1073.15                  1073.15                  1073.15                  1073.15                  1073.15                  1073.15                  1073.15                  1073.15                  1073.15                  1073.15                  1073.15                  1073.15                  1073.15                  1073.15                  1073.15                  1073.15                  1073.15                  1073.15                  1073.15                  0.04309945720010949      0.17289243614484123      0.249491818993726        0.0843012034306452       0.07727384368055086      0.1585833552884818       0.19136550193313556      0.05086915630446435      0.004966164243126208     0.009727905603738131     0.0024677656911220505    0.0022824344644177008    1.7403801099026827E-4    1.065211309091899E-5
0.5750000000000001        0.48                     1501636.4665629733       1073.15                  1073.15                  1073.15                  1073.15                  1073.15                  1073.15                  1073.15                  1073.15                  1073.15                  1073.15                  1073.15                  1073.15                  1073.15                  1073.15                  1073.15                  1073.15                  1073.15                  1073.15                  1073.15                  1073.15                  1073.15                  1073.15                  1073.15                  1073.15                  1073.15                  1073.15                  1073.15                  1073.15                  1073.15                  1073.15                  1073.15                  1073.15                  1073.15                  1073.15                  1073.15                  1073.15                  1073.15                  1073.15                  1073.15                  1073.15                  1073.15                  1073.15                  1073.15                  1073.15                  1073.15                  1073.15                  0.05871726178252109      0.22769511041377793      0.2860760449654354       0.07907740965973509      0.07209322590223491      0.10219361999754406      0.1108621944421933       0.027033997243544293     0.007851327087243233     0.015235843320327066     0.0038646512694090257    0.003574467295858152     2.726419512932092E-4     1.6765801454401027E-5
0.6250000000000001        0.48                     1813427.4671824926       1073.1499999999996       1073.1499999999996       1073.1499999999996       1073.1499999999996       1073.1499999999996       1073.1499999999996       1073.1499999999996       1073.1499999999996       1073.1499999999996       1073.1499999999996       1073.1499999999996       1073.1499999999996       1073.1499999999996       1073.1499999999996       1073.1499999999996       1073.1499999999996       1073.1499999999996       1073.1499999999996       1073.1499999999996       1073.1499999999996       1073.1499999999996       1073.1499999999996       1073.1499999999996       1073.1499999999996       1073.1499999999996       1073.1499999999996       1073.1499999999996       1073.1499999999996       1073.1499999999996       1073.1499999999996       1073.1499999999996       1073.1499999999996       1073.1499999999996       1073.1499999999996       1073.1499999999996       1073.1499999999996       1073.1499999999996       1073.1499999999996       1073.1499999999996       1073.1499999999996       1073.1499999999996       1073.1499999999996       1073.1499999999996       1073.1499999999996       1073.1499999999996       1073.1499999999996       0.035873757509316664     0.1474064373177122       0.2160280938011431       0.06898789745700468      0.06682943357336629      0.1205420132895658       0.14258254273688978      0.0375017068924658       0.004349844405371711     0.008445656254016023     0.002142296623345457     0.001981436833885745     1.511310296945622E-4     9.2910847697914E-6
0.675                     0.48                     1883306.4782130094       1073.15                  1073.15                  1073.15                  1073.15                  1073.15                  1073.15                  1073.15                  1073.15                  1073.15                  1073.15                  1073.15                  1073.15                  1073.15                  1073.15                  1073.15                  1073.15                  1073.15                  1073.15                  1073.15                  1073.15                  1073.15                  1073.15                  1073.15                  1073.15                  1073.15                  1073.15                  1073.15                  1073.15                  1073.15                  1073.15                  1073.15                  1073.15                  1073.15                  1073.15                  1073.15                  1073.15                  1073.15                  1073.15                  1073.15                  1073.15                  1073.15                  1073.15                  1073.15                  1073.15                  1073.15                  1073.15                  0.031193529276881595     0.1309575033635556       0.20177602181141197      0.06702741919911681      0.06582824288382294      0.12468715116459526      0.14959911827290293      0.039793141042735264     0.0036281293950267417    0.007046849679827793     0.0017874864083899686    0.0016532674944634098    1.2609893512361442E-4    7.750817938642676E-6
0.7250000000000001        0.48                     1883306.4782130108       1073.1499999999999       1073.1499999999999       1073.1499999999999       1073.1499999999999       1073.1499999999999       1073.1499999999999       1073.1499999999999       1073.1499999999999       1073.1499999999999       1073.1499999999999       1073.1499999999999       1073.1499999999999       1073.1499999999999       1073.1499999999999       1073.1499999999999       1073.1499999999999       1073.1499999999999       1073.1499999999999       1073.1499999999999       1073.1499999999999       1073.1499999999999       1073.1499999999999       1073.1499999999999       1073.1499999999999       1073.1499999999999       1073.1499999999999       1073.1499999999999       1073.1499999999999       1073.1499999999999       1073.1499999999999       1073.1499999999999       1073.1499999999999       1073.1499999999999       1073.1499999999999       1073.1499999999999       1073.1499999999999       1073.1499999999999       1073.1499999999999       1073.1499999999999       1073.1499999999999       1073.1499999999999       1073.1499999999999       1073.1499999999999       1073.1499999999999       1073.1499999999999       1073.1499999999999       0.03119352927688162      0.1309575033635557       0.2017760218114121       0.06702741919911687      0.06582824288382298      0.12468715116459536      0.14959911827290304      0.03979314104273529      0.0036281293950267443    0.007046849679827798     0.0017874864083899699    0.001653267494463411     1.260989351236145E-4     7.750817938642683E-6
0.775                     0.48                     0                        NaN                      NaN                      NaN                      NaN                      NaN                      NaN                      NaN                      NaN                      NaN                      NaN                      NaN                      NaN                      NaN                      NaN                      NaN                      NaN                      NaN                      NaN                      NaN                      NaN                      NaN                      NaN                      NaN                      NaN                      NaN                      NaN                      NaN                      NaN                      NaN                      NaN                      NaN                      NaN                      NaN                      NaN                      NaN                      NaN                      NaN                      NaN                      NaN                      NaN                      NaN                      NaN                      NaN                      NaN                      NaN                      NaN                      0.03119352927688161      0.13095750336355566      0.20177602181141205      0.06702741919911684      0.06582824288382297      0.12468715116459532      0.14959911827290298      0.039793141042735285     0.0036281293950267434    0.007046849679827797     0.0017874864083899697    0.0016532674944634107    1.2609893512361447E-4    7.75081793864268E-6
0.8250000000000001        0.48                     0                        NaN                      NaN                      NaN                      NaN                      NaN                      NaN                      NaN                      NaN                      NaN                      NaN                      NaN                      NaN                      NaN                      NaN                      NaN                      NaN                      NaN                      NaN                      NaN                      NaN                      NaN                      NaN                      NaN                      NaN                      NaN                      NaN                      NaN                      NaN                      NaN                      NaN                      NaN                      NaN                      NaN                      NaN                      NaN                      NaN                      NaN                      NaN                      NaN                      NaN                      NaN                      NaN                      NaN                      NaN                      NaN                      NaN                      0.031193529276881616     0.1309575033635557       0.20177602181141208      0.06702741919911685      0.06582824288382298      0.12468715116459535      0.149599118272903        0.03979314104273529      0.003628129395026744     0.007046849679827797     0.0017874864083899699    0.001653267494463411     1.260989351236145E-4     7.750817938642681E-6