% Model:              Untitled.mph
% Version:            COMSOL 5.3.0.260
% Date:               Nov 21 2017, 09:59
% Dimension:          2
% Nodes:              1330
% Expressions:        14
% Description:        , , , , , , , , , , , , , 
% Length unit:        m
% cpl1x                   cpl1y                    PdensityN (W/m^3) @ lambda=1 Flux2 (1/(m^2*s)) @ lambda=1 Flux3 (1/(m^2*s)) @ lambda=1 Flux4 (1/(m^2*s)) @ lambda=1 Flux5 (1/(m^2*s)) @ lambda=1 Flux6 (1/(m^2*s)) @ lambda=1 Flux7 (1/(m^2*s)) @ lambda=1 Flux8 (1/(m^2*s)) @ lambda=1 Conc1 (1/(m^2*s)) @ lambda=1 Conc2 (1/(m^2*s)) @ lambda=1 Conc3 (1/(m^2*s)) @ lambda=1 Conc4 (1/(m^2*s)) @ lambda=1 Conc5 (1/(m^2*s)) @ lambda=1 Conc6 (1/(m^2*s)) @ lambda=1
0.025                     0.48                     0                        0.0050355684432936655    0.02553595731392337      0.016852824719947684     0.07959032869790292      0.36059971107584177      0.4995745424381702       0.14350941862919153      -9.703304837187641E-5    -1.8655132580452572E-4   -4.7308875228934244E-5   -4.375836841546383E-5    -3.3396713690435025E-6   -2.0685228420343498E-7
0.07500000000000001       0.48                     0                        0.010593992465836343     0.04141400372289965      0.0252682966556624       0.0807922186857061       0.35301414711893025      0.4892726901198594       0.140742955082515        -7.703959778547022E-5    -1.4660046814314755E-4   -3.7172532169847254E-5   -3.438356302350389E-5    -2.625041377795261E-6    -1.6348511787134773E-7
0.125                     0.48                     0                        0.010593992465836338     0.04141400372289963      0.025268296655662385     0.08079221868570606      0.3530141471189301       0.4892726901198591       0.14074295508251494      -7.703959778547018E-5    -1.466004681431475E-4    -3.7172532169847234E-5   -3.4383563023503876E-5   -2.62504137779526E-6     -1.6348511787134762E-7
0.17500000000000002       0.48                     0                        0.018575089032161374     0.06033303652310254      0.0344811480688814       0.08068989461706672      0.34025796373937384      0.4738342325405365       0.13676759260081367      6.660565702030522E-6     2.5639628821748425E-5    6.5423099530051085E-6    6.044797358349037E-6     4.5389349922205756E-7    2.0585326722526496E-8
0.225                     0.48                     0                        0.061884132662256994     0.14057424261324725      0.0689613984718743       0.08158106209341622      0.28888826075360236      0.4011464669660604       0.1162010883221096       -4.3133077527137266E-4   -9.770877080124564E-4    -2.4827014599236894E-4   -2.2955921804785804E-4   -1.7430246928409585E-5   -9.91192938872903E-7
0.275                     0.48                     0                        0.07070944863260667      0.15511508289850587      0.07470794705959993      0.08183944385797323      0.2796138164945431       0.3869343194630269       0.11201799083286833      -5.858742897357702E-4    -0.0013173096928657771   -3.346891754871489E-4    -3.0946989912873673E-4   -2.3503103245063928E-5   -1.3416570686422745E-6
0.32500000000000007       0.48                     0                        0.07070944863260667      0.15511508289850587      0.07470794705959993      0.08183944385797323      0.2796138164945431       0.3869343194630269       0.11201799083286833      -5.858742897357702E-4    -0.0013173096928657771   -3.346891754871489E-4    -3.0946989912873673E-4   -2.3503103245063928E-5   -1.3416570686422745E-6
0.37500000000000006       0.48                     0                        0.14942611471966152      0.23426667982514957      0.0861862780155093       0.08390452876621346      0.20943623284894652      0.2688005978593899       0.07444751754631651      0.002113978534336763     0.0040720712960249745    0.001032809525311104     9.552743295966695E-4     7.288033052549313E-5     4.499092414727603E-6
0.42500000000000004       0.48                     0                        0.17569570522111486      0.2606814169089013       0.0900168652194748       0.0845936958459042       0.1860163336536163       0.2293766150460405       0.06190937286559546      0.003014982497387496     0.005870633642122101     0.0014891757901311945    0.0013773490264715237    1.0504573414505603E-4    6.448286972586731E-6
0.47500000000000003       0.48                     2774585.7683703117       0.2045543206041196       0.28175982580708314      0.08980132801267854      0.08516660319553722      0.1629882269438527       0.19425576834598862      0.05080433475285186      0.010618537221824964     0.020615047391765225     0.0052291371295622975    0.004836495083542491     3.6889723558003E-4       2.2679812134865127E-5
0.525                     0.48                     2215798.969903448        0.23570506554553744      0.31069107267225765      0.09055919885308444      0.08208639239844477      0.13140388556643556      0.1491086297542443       0.03783122712997211      0.00721923403194993      0.014017760464747044     0.003555700228885814     0.0032887110465964825    2.50840831535118E-4      1.5420443061389187E-5
0.5750000000000001        0.48                     1810062.3062684843       0.24448601822520394      0.31865582742463805      0.08848686004636323      0.07669518914910343      0.10790421322207046      0.11741365644724011      0.029055369894966154     0.006327090654205225     0.012285108748890852     0.0031162002610301397    0.0028822122749336447    2.1983603114460277E-4    1.35146270377139E-5
0.6250000000000001        0.48                     1769680.637479375        0.24462042443845983      0.3185037179455748       0.08806418631061383      0.07605326543646534      0.105578780662621        0.11432457652500873      0.028191993508349264     0.006276906978954503     0.012187705086429383     0.0030914932777790292    0.002859360461954421     2.1809302614962369E-4    1.3407453361707854E-5
0.675                     0.48                     2203176.932613351        0.17268318108140818      0.24280942220518234      0.07484928330135485      0.07133650252556317      0.12964290908145792      0.1528462030159381       0.03985946455936083      0.006732348864273985     0.013071960754423882     0.003315790478251364     0.0030668157544577984    2.3391637349907843E-4    1.438024345378052E-5
0.7250000000000001        0.48                     2366316.179427662        0.14561077508647355      0.21432311094060594      0.0698760705014892       0.06956142588171688      0.13869905057461326      0.16734318765533424      0.04425032662866992      0.006903746975336843     0.0134047359252551       0.003400201064358696     0.0031448881637183763    2.3987123170120795E-4    1.4746337108352847E-5
0.775                     0.48                     0                        0.10914526985787926      0.18253409154663813      0.06486545254906312      0.06616933326377165      0.15345959656263336      0.19276947883217038      0.05279315823857872      0.0019027108723107104    0.0036944191995994173    9.371141778854434E-4     8.667485335913263E-4     6.610983533729888E-5     4.064172010121231E-6
0.8250000000000001        0.48                     0                        0.047897448011987684     0.11245445876499753      0.04892697908273061      0.05661162202255639      0.17772628495463458      0.23658276238121773      0.06689947473025411      4.685643163531742E-4     9.097930606872418E-4     2.307751045315122E-4     2.134467582777615E-4     1.628030445270447E-5     1.000848884179333E-6
0.8750000000000001        0.48                     0                        0.020904222615023477     0.06395537517694952      0.03478625081375647      0.0395627538841364       0.18960564433400406      0.25968185867118426      0.07393560130195026      3.379284110092582E-6     6.5614261366124865E-6    1.6643496968772182E-6    1.5393776925301107E-6    1.1741352921374448E-7    7.218117053851093E-9
0.925                     0.48                     0                        0.020668140107389373     0.06349669140573798      0.03465277401408518      0.03935279139215266      0.1897237813271387       0.25990195183305326      0.07400162589906921      6.671523208455296E-6     1.295383811295927E-5     3.2858278162798614E-6    3.0391029291859155E-6    2.318026335399365E-7     1.4250307997884787E-8
0.9750000000000001        0.48                     0                        0.020668140107389363     0.06349669140573795      0.03465277401408516      0.03935279139215264      0.1897237813271386       0.25990195183305315      0.07400162589906918      6.671523208455294E-6     1.2953838112959264E-5    3.2858278162798597E-6    3.0391029291859138E-6    2.3180263353993638E-7    1.4250307997884781E-8
1.025                     0.48                     0                        0.020235374247345405     0.062205754193235034     0.03399112880175455      0.038836576810244515     0.18849559995361775      0.2584816905960125       0.07362129882945649      6.514624280097364E-6     1.2649193549120259E-5    3.2085526818884578E-6    2.9676301981931174E-6    2.2635116722164519E-7    1.3915173425136179E-8
1.075                     0.48                     0                        0.005883811013777818     0.01939515209555778      0.012049372347154653     0.021717652009680503     0.14776613334878247      0.21138239087421606      0.06100873279102402      1.31147611268157E-6      2.5464425575007472E-6    6.459222158715612E-7     5.974214709734913E-7     4.556735129246349E-8     2.80129995076429E-9
1.125                     0.48                     0                        0.0012876430023702364    0.0056848184748815485    0.00502240270702169      0.01623522105233278      0.13472229495402224      0.19629857796701353      0.05696948831122954      -3.548610504893058E-7    -6.890196830370052E-7    -1.747744553744364E-7    -1.6165106733548482E-7   -1.232967206527345E-8    -7.579798931389083E-10
1.175                     0.48                     0                        0.0012876430023702362    0.005684818474881547     0.005022402707021689     0.016235221052332778     0.13472229495402221      0.1962985779670135       0.05696948831122954      -3.548610504893057E-7    -6.89019683037005E-7     -1.7477445537443635E-7   -1.616510673354848E-7    -1.2329672065273447E-8   -7.579798931389081E-10
1.225                     0.48                     0                        0.0012876430023702357    0.005684818474881545     0.005022402707021687     0.016235221052332775     0.1347222949540222       0.19629857796701344      0.05696948831122953      -3.548610504893055E-7    -6.890196830370047E-7    -1.7477445537443627E-7   -1.616510673354847E-7    -1.232967206527344E-8    -7.579798931389077E-10
1.275                     0.48                     0                        0.001287643002370235     0.005684818474881543     0.0050224027070216865    0.01623522105233277      0.13472229495402216      0.1962985779670134       0.05696948831122951      -3.5486105048930535E-7   -6.890196830370044E-7    -1.7477445537443617E-7   -1.6165106733548463E-7   -1.2329672065273437E-8   -7.579798931389075E-10
1.325                     0.48                     0                        -2.897489630569411E-4    -9.798196988350955E-4    -1.5972855560119145E-4   0.008542224036213384     0.07831245499873983      0.11548236346064561      0.03369321213704174      5.682180642178939E-8     1.1033059814287197E-7    2.7986101914898636E-8    2.5884692335495302E-8    1.9743130304862764E-9    1.2137181070543158E-10
1.375                     0.48                     0                        -1.5711539929865817E-5   -1.6666575258660093E-4   -3.0553003235529063E-4   0.005252444570883455     0.044084738351071004     0.06473238568290267      0.018908227576536617     -8.795135222715658E-8    -1.7077180715909783E-7   -4.3317412260447413E-8   -4.006481011934613E-8    -3.055877895256465E-9    -1.8786107621862798E-10
1.425                     0.48                     0                        4.32818832440224E-5      4.661349559105579E-5     -1.6281540413751915E-4   0.004123512997575296     0.03494034762941139      0.051259769487242444     0.014971372029944205     -7.608826900384915E-8    -1.477381138377582E-7    -3.747476469169904E-8    -3.466086894841227E-8    -2.6437007805582882E-9   -1.625210550322619E-10
1.475                     0.48                     0                        4.761322286605886E-5     5.870734782297249E-5     -1.5684963791042165E-4   0.004008778443890776     0.03400044412188676      0.04987750027543924      0.014568006155459237     -8.087687741937653E-8    -1.570359627533438E-7    -3.983322648519271E-8    -3.6842239216153835E-8   -2.810081210866547E-9    -1.7274941964188614E-10
1.525                     0.48                     0                        4.310426084526906E-5     5.7218754894217144E-5    -1.228220227861044E-4    0.0034825614581697863    0.02972466994479195      0.04357837068123122      0.012708995134028402     -7.50952869900481E-8     -1.4580994619479333E-7   -3.698567346371716E-8    -3.4208501470336916E-8   -2.609198113971106E-9    -1.6039937357584173E-10
1.575                     0.48                     0                        1.5249604685428099E-5    2.4655717332486515E-5    -1.2417485798688252E-5   0.0012848532520156057    0.011211558862524834     0.016056901983600953     0.004450202330358409     -4.8313137483024844E-8   -9.380726574913086E-8    -2.3794833279177323E-8   -2.2008142522649368E-8   -1.6786411094736278E-9   -1.0319221866416939E-10
1.625                     0.48                     0                        1.208826174552368E-5     2.0531019414840826E-5    -1.719464587211167E-6    0.0010547584865820403    0.009255476715417953     0.01314251516178826      0.003572091267436489     -4.5437537229600795E-8   -8.822373057959983E-8    -2.237853046181688E-8    -2.0698188233290183E-8   -1.5787270963420989E-9   -9.70499372840793E-11
1.675                     0.48                     0                        8.737842487673764E-6     2.0646940965802853E-5    3.175376716759896E-6     6.540266748383451E-4     0.005630435616875757     0.007351911115880262     0.0016678750742963504    2.1520898226156159E-10   4.1783266009767215E-10   1.0599008556632568E-10   9.802196338465631E-11    7.47884125723793E-12     4.628750844403737E-13
1.725                     0.48                     0                        5.5119075635461E-6       1.2986849886408276E-5    4.0324767867619944E-6    1.9410135218660317E-4    0.0013390103265789144    0.0013793782909608517    2.2728874111036928E-4    -3.5039446238694177E-10  -6.804399476933398E-10   -1.7259880487839122E-10  -1.596399845480786E-10   -1.2172824487510127E-11  -7.524873164962114E-13
0.025                     0.62                     0                        0.005193767484206176     0.050381740693224986     0.0372806838129901       0.2513465561948975       1.1642282390753897       1.612516160583907        0.4628399241422428       -3.483454634378144E-4    -6.72667191771077E-4     -1.7059606196345955E-4   -1.5779133226318453E-4   -1.2041068331021273E-5   -7.440494723868369E-7
0.07500000000000001       0.62                     0                        0.0151202652476735       0.07873751051713881      0.05230943351067524      0.2534929484505938       1.1506815784846285       1.5941186231555724       0.45789944207440725      -3.1264020926413796E-4   -6.013210516392809E-4    -1.524940988354762E-4    -1.410493592904817E-4    -1.0764848132442878E-5   -6.666023258831673E-7
0.125                     0.62                     0                        0.03271206852593592      0.13320117999159375      0.08191214641596563      0.2542359913926787       1.1170063524726754       1.5563557468790021       0.4488442730734304       -9.019143146810704E-5    -1.79079695447818E-4     -4.543074237121251E-5    -4.2018503107295967E-5   -3.203735000216107E-6    -1.951848398308687E-7
0.17500000000000002       0.62                     0                        0.056085479162247966     0.19192536859654213      0.1113427941087196       0.2551525887180098       1.080806013472895        1.512226431304505        0.4374997041340192       1.5950557173118754E-4    3.3423958246645523E-4    8.484879997927847E-5     7.846690183502199E-5     5.972559305289139E-6     3.537198575369163E-7
0.225                     0.62                     0                        0.08398074401907414      0.25685160497300075      0.14291153921263536      0.25501321656526554      1.038635232074724        1.4609336207898664       0.4242290617431655       3.529446705926861E-4     6.780917863253223E-4     1.719517734832099E-4     1.5904859333303604E-4    1.214049561776605E-5     7.529164802903439E-7
0.275                     0.62                     0                        0.14014723415280714      0.35117062745956423      0.1807007858799699       0.25731929854283303      0.9800885151238472       1.3705369663942566       0.3975498818668622       -5.316336144437509E-4    -0.0012649587801790967   -3.215878958125017E-4    -2.9732351450516894E-4   -2.2543672366060486E-5   -1.2508000674516681E-6
0.32500000000000007       0.62                     0                        0.1963137242865402       0.4454896499461278       0.21849003254730448      0.2596253805204005       0.9215417981729703       1.2801403119986472       0.3708707019905589       -0.001416211899480188    -0.0032080093466835165   -8.151275651082132E-4    -7.53695622343374E-4     -5.722784034988702E-5    -3.2545166151936806E-6
0.37500000000000006       0.62                     0                        0.3097685431463244       0.57948699276883         0.2505517907925369       0.26300937047372075      0.8154850404151422       1.1057318963161487       0.316483395714578        9.539084323119951E-4     0.0014407308601729859    3.642039253701953E-4     3.370588172317689E-4     2.5940316966651967E-5    1.8310011827996596E-6
0.42500000000000004       0.62                     0                        0.47546200200192945      0.7464010412351462       0.2748816807193938       0.2672577205807427       0.6669559028626637       0.8556319529875482       0.2369634787260326       0.006530800689700063     0.012584384857348465     0.0031918215631159467    0.0029522026860102535    2.2522870761761796E-4    1.3901461877198668E-5
0.47500000000000003       0.62                     8803739.437240578        0.6525093305785247       0.8984255986542254       0.286160320088647        0.2712463558653019       0.5173908074417297       0.6159749000671574       0.1609591240154675       0.0345248582352468       0.06702430029653474      0.01700112869153498      0.015724560445490414     0.0011993716110312678    7.37390983917001E-5
0.525                     0.62                     7015745.674050081        0.7513432442674185       0.990574638999127        0.2884328673122336       0.26099641732616674      0.4161204117488321       0.4716084537403886       0.1195874134828254       0.022857001811859054     0.044382017911911424     0.011257800604892992     0.01041247877668721      7.94194063336987E-4      4.882307451211556E-5
0.5750000000000001        0.62                     6113424.5574830165       0.7686358146946468       1.0058857952674942       0.2832962976004821       0.24894550793738415      0.3638810461063135       0.4012282575044348       0.1001193694096466       0.021406387374120657     0.04156378800480684      0.01054293277379404      0.009751289447560235     7.437638389363875E-4     4.572375828729673E-5
0.6250000000000001        0.62                     5848399.4214642765       0.7316326625445102       0.9639210639354219       0.2714506756228623       0.23890568845154903      0.34824141667360886      0.383686486995069        0.09566606967568413      0.020925088247874743     0.040629650284340825     0.010305983630731114     0.009532132058497218     7.270477521335521E-4     4.4695900730346664E-5
0.675                     0.62                     6492433.514415919        0.6269281651752309       0.8558070449387486       0.253037232829781        0.23208257933524956      0.3838149081677352       0.4406203790884262       0.11303800845681397      0.02058550192450261      0.03997020726515274      0.010138711252171678     0.009377419798324965     7.152473705285601E-4     4.397050596386026E-5
0.7250000000000001        0.62                     6991042.605665608        0.5456394591434796       0.7694292769714689       0.2377779089042823       0.2268053236995815       0.41154323691672934      0.48493408514554737      0.1263920230350309       0.02167849926700866      0.04209237649142961      0.010677013509567242     0.009875302266630442     7.532225803334276E-4     4.630510695235464E-5
0.775                     0.62                     0                        0.37846943528374094      0.613386651536437        0.2131757337432236       0.21418850673545115      0.4749131082399999       0.589990366847015        0.1602944010205387       0.009530952038574307     0.018505884997177126     0.004694141720586344     0.004341669931964147     3.3115381121625914E-4    2.0358025736276294E-5
0.8250000000000001        0.62                     0                        0.21436762757864614      0.44610395885139986      0.17937968259953394      0.1950724232465345       0.5402745781809826       0.7049181958788694       0.19804938635160982      -0.00327884894243792     -0.0063664135492641815   -0.0016148834464432495   -0.0014936257413471      -1.139238747606609E-4    -7.003590091641359E-6
0.8750000000000001        0.62                     0                        0.11795926682194693      0.3000318936884396       0.13814760306426901      0.16673270063163234      0.5762282282370682       0.7756427246881146       0.22000916054412817      2.46052024965929E-4      4.777496472652629E-4     1.2118439854689043E-4    1.1208495419385386E-4    8.549097624019826E-6     5.255647767508271E-7
0.925                     0.62                     0                        0.059376389085898415     0.18454877496034838      0.1014498504222749       0.1191995706311211       0.5894111449237822       0.8105876817690137       0.23109425959647792      1.7866729054393944E-5    3.4691134358177555E-5    8.799638625717775E-6     8.138894981094525E-6     6.207809796390346E-7     3.81631568159025E-8
0.9750000000000001        0.62                     0                        0.044771975166063564     0.13943153413706363      0.07818463454923556      0.10025917329782265      0.5448412364604622       0.7591656519650604       0.2173301106150145       1.3612892124187293E-5    2.6431625472947766E-5    6.704558872354937E-6     6.201129709639006E-6     4.729810841556443E-7     2.907700358108587E-8
1.025                     0.62                     0                        0.03042041193249604      0.0966209320393866       0.05624287809463577      0.08314024849725872      0.5041117698556272       0.7120663522432641       0.2047175445765821       8.409743956771522E-6     1.6328874481328303E-5    4.141928406338053E-6     3.830920982419391E-6     2.9219726822646355E-7    1.7963130106714033E-8
1.075                     0.62                     0                        0.016068848698928457     0.053810329941709326     0.034301121640035875     0.06602132369669471      0.46338230325079177      0.6649670525214676       0.19210497853814962      3.2065957893557265E-6    6.226123489708789E-6     1.579297940321156E-6     1.4607122551997644E-6    1.1141345229728174E-7    6.849256632342141E-9
1.125                     0.62                     0                        0.00410436207005514      0.018120358888684976     0.016008908628631666     0.0517497671043108       0.4294273151659463       0.6257017172698562       0.18159024399204438      -1.1311195984346668E-6   -2.1962502396804623E-6   -5.570935765060181E-7    -5.152627771318599E-7    -3.9300829708059276E-8   -2.4160609093802797E-9
1.175                     0.62                     0                        0.00410436207005514      0.018120358888684976     0.016008908628631666     0.0517497671043108       0.4294273151659463       0.6257017172698562       0.18159024399204438      -1.1311195984346668E-6   -2.1962502396804623E-6   -5.570935765060181E-7    -5.152627771318599E-7    -3.9300829708059276E-8   -2.4160609093802797E-9
1.225                     0.62                     0                        0.0016023337875078524    0.00806104740833049      0.00924075680653947      0.04442331450244995      0.38904340175563124      0.5698040261095041       0.16565813314015937      -7.908599982380904E-8    -1.535548020522245E-7    -3.895019177597204E-8    -3.60255220306916E-8     -2.7477878555361464E-9   -1.689268696334236E-10
1.275                     0.62                     0                        -0.0015442947520185185   -0.004653007171517903    5.498706931852522E-4     0.03460792284628844      0.33220021828493135      0.49058881522823927      0.14303268960901616      1.1947671233303357E-6    2.3198396744148593E-6    5.884428905140855E-7     5.442581360389599E-7     4.1512404001542246E-8    2.5520118051602764E-9
1.325                     0.62                     0                        -0.0010871061555484322   -0.0035262160788481515   -2.3013522678124885E-4   0.029172522188085505     0.27137681362103444      0.40037022987948795      0.11678545942813232      4.481693318208136E-7     8.701992336365676E-7     2.2073188489628775E-7    2.0415765919759177E-7    1.5571793895431185E-8    9.572878699603817E-10
1.375                     0.62                     0                        -6.299175590783459E-4    -0.002399424986178399    -0.0010101411467477485   0.02373712152988257      0.21055340895713756      0.3101516445307366       0.09053822924724844      -2.984284596887084E-7    -5.794412071417238E-7    -1.4697912072150996E-7   -1.3594281764377634E-7   -1.036881621067987E-8    -6.374360652395125E-10
1.425                     0.62                     0                        -2.987388380624076E-4    -0.0017700043712431455   -0.0020054726540782      0.018465452139257717     0.1534734213776345       0.22565804570174092      0.06596889757645152      -8.6972724827503E-7      -1.688710879389684E-6    -4.2835280346330383E-7   -3.96188831398901E-7     -3.0218657221409304E-8   -1.8577233186724218E-9
1.475                     0.62                     0                        -1.3781463839777344E-4   -9.683177956872064E-4    -0.0013378548609026943   0.017350193708088275     0.14509042239712905      0.21315241290845915      0.0622807260035211       -4.882966855547664E-7    -9.481052073862293E-7    -2.404932275332917E-7    -2.224351691264711E-7    -1.6965879524570527E-8   -1.0429905376100472E-9
1.525                     0.62                     0                        -3.92694781017891E-5     -4.977028467753439E-4    -8.401566777935657E-4    0.012980664306036714     0.10997624159140529      0.1612511922900021       0.046942024724683194     -3.0515056783540074E-7   -5.924985234567207E-7    -1.5029121650306755E-7   -1.3900620340681604E-7   -1.0602471208443176E-8   -6.5179263697224E-10
1.575                     0.62                     0                        5.9962400121903796E-5    4.141693643052438E-5     -2.1273957458752565E-4   0.0072824364671395135    0.06387880365414066      0.09294674403533965      0.026655171027723332     -1.6435392011890192E-9   -3.192484899843918E-9    -8.098026434421215E-10   -7.489833898075734E-10   -5.712726932742423E-11   -3.5053694529416967E-12
1.625                     0.62                     0                        2.4554593352405274E-5    -2.215215093631244E-5    -1.256947922491745E-4    0.004762638165526474     0.04241459394842999      0.060974419637963545     0.01703486515863155      3.773635273051098E-8     7.3270408944285E-8       1.8585529980315574E-8    1.7189988079837233E-8    1.3111331239884588E-9    8.06110842174212E-11
1.675                     0.62                     0                        5.1362394793337604E-6    -5.083031159890407E-5    -5.53276915051553E-5     0.0024190740490697966    0.02197823780212055      0.029388167977809868     0.007006435161642673     -2.5996468071976403E-8   -5.047616161792449E-8    -1.2803612885503606E-8   -1.1842230057203748E-8   -9.032424010883023E-10   -5.552507997726929E-11
1.725                     0.62                     0                        1.5200695695969203E-6    -2.8316618769084776E-5   -1.9277804817519403E-5   5.291831726708352E-4     0.003948524492282848     0.004019336855026814     6.178475828303674E-4     4.3551163591817236E-10   8.455546458946139E-10    2.1447753403828665E-10   1.9837607497529228E-10   1.5131747143698466E-11   9.288617670234608E-13
0.025                     0.76                     0                        0.014084246247119635     0.10267346754083191      0.07267236567843013      0.4219493429576435       1.9457125994272064       2.7014022250017216       0.7764652013638754       -4.621083250790103E-4    -8.878576910193325E-4    -2.2515666668105792E-4   -2.0825895711268185E-4   -1.5894983322045894E-5   -9.848440655583653E-7
0.07500000000000001       0.76                     0                        0.03635161313939009      0.16898239936892917      0.10823769196023814      0.4221208320827798       1.9026238067170713       2.653177904527025        0.7648446489982339       -1.1611705150362542E-4   -1.9835390534274168E-4   -5.022493472927368E-5    -4.64680011531796E-5     -3.5610609388864023E-6   -2.3513686198210418E-7
0.125                     0.76                     0                        0.05861898003166051      0.23529133119702633      0.14380301824204605      0.42229232120791593      1.8595350140069364       2.604953584052328        0.7532240966325923       2.2987422207175926E-4    4.911498803338486E-4     1.2470679722251043E-4    1.1532295480632255E-4    8.77286144427308E-6      5.145703415941564E-7