% Model:              transient.mph
% Version:            COMSOL 5.3.1.180
% Date:               Jan 18 2018, 11:31
% Table:              Table 1 - 
% Time (s)               Temperature (W), Probe PintTemperature (degC), average_fuel_temp_probeTemperature (degC), average_flibe_temp_probeTemperature (degC), max fuel tempTemperature (degC), max flibe temp
0                        2.339956848513325E8      733.3900670702424        690.0687925555675        1279.1426690904564       960.9330178482081
0.1                      2.339638858111244E8      733.3893397157331        690.068968953762         1279.1408357772007       960.9337297299074
0.2                      2.339320867708963E8      733.3886123612709        690.0691453519489        1279.1390024639445       960.934441611607
0.30000000000000004      2.3392061938547197E8     733.3880493302324        690.0693679519684        1279.1373299961801       960.9352480120793
0.4                      2.3390915200004342E8     733.387486299244         690.0695905519709        1279.1356575284158       960.9360544125519
0.5                      2.3389998531536385E8     733.3871047946164        690.0698266245889        1279.1344753397411       960.9366098559593
0.6000000000000001       2.3389235243121234E8     733.3868443076517        690.0700716789113        1279.1336200037927       960.9369979946565
0.7000000000000001       2.338862533475315E8      733.3867048382708        690.0703257149814        1279.1330915205713       960.9372188286435
0.8                      2.3388168806439283E8     733.3866863865406        690.0705887328393        1279.1328898900765       960.93727235792
0.9                      2.3388173234144562E8     733.3862293203485        690.0707895233534        1279.1312815229662       960.9367003282676
1                        2.3388177661853567E8     733.3857722541862        690.0709903139598        1279.1296731558564       960.936128298615
1.1                      2.3388182089560434E8     733.3853151880176        690.0711911044807        1279.128064788746        960.9355562689626
1.2000000000000002       2.338818651726494E8      733.3848581218581        690.0713918950761        1279.1264564216362       960.9349842393098
1.3                      2.3388190944973117E8     733.3844010556896        690.0715926856095        1279.124848054526        960.9344122096574
1.4000000000000001       2.338819537267278E8      733.383943989526         690.071793476209         1279.1232396874161       960.933840180005
1.5                      2.338819980038815E8      733.3834869233757        690.0719942667257        1279.1216313203058       960.9332681503523
1.6                      2.338820422809021E8      733.3830298572287        690.072195057322         1279.120022953196        960.9326961206999
1.7000000000000002       2.3392570153245324E8     733.3723454653128        690.0351112646176        1279.1030967153674       960.932553013252
1.8                      2.3396936078394958E8     733.3616610734184        689.9980274719431        1279.0861704775389       960.9324099058041
1.9000000000000001       2.3401302003546834E8     733.3509766815291        689.9609436792902        1279.0692442397108       960.9322667983562
2                        2.3405667928702685E8     733.340292289634         689.9238598866121        1279.0523180018822       960.9321236909083
2.1                      2.3410033853854665E8     733.3296078977268        689.8867760939158        1279.0353917640537       960.9319805834604
2.2                      2.341439977900797E8      733.3189235058691        689.849692301282         1279.0184655262256       960.9318374760124
2.3000000000000003       2.3418765704160994E8     733.3082391139326        689.8126085085474        1279.001539288397        960.9316943685645
2.4000000000000004       2.3423131629312104E8     733.2975547220487        689.7755247158777        1278.9846130505684       960.9315512611166
2.5                      2.3427497554467443E8     733.2868703301873        689.7384409232191        1278.9676868127403       960.9314081536687
2.6                      2.34318634796187E8       733.2761859382957        689.7013571305204        1278.9507605749118       960.9312650462208
2.7                      2.3436229404767936E8     733.2655015464082        689.6642733378495        1278.9338343370832       960.9311219387729
2.8000000000000003       2.3440595329922494E8     733.254817154524         689.6271895451517        1278.9169080992547       960.930978831325
2.9000000000000004       2.3444961255075395E8     733.2441327626204        689.5901057525318        1278.8999818614266       960.9308357238771
3                        2.344932718022844E8      733.2334483707247        689.5530219598132        1278.883055623598        960.9306926164292
3.1                      2.3453693105380493E8     733.2227639788429        689.5159381671165        1278.8661293857695       960.9305495089812
3.2                      2.345805903053385E8      733.2120795869413        689.4788543744512        1278.8492031479414       960.9304064015333
3.3000000000000003       2.3484215467811048E8     733.1695351749622        689.3611260393134        1278.9698744045018       960.9321202783577
3.4000000000000004       2.351037190509022E8      733.1269907629485        689.2433977041422        1279.0905456610617       960.9338341551824
3.5                      2.3536528342373833E8     733.084446350938         689.1256693690013        1279.211216917622        960.9355480320067
3.6                      2.3562684779655337E8     733.0419019389268        689.0079410338457        1279.331888174182        960.9372619088314
3.7                      2.3588841216930103E8     732.9993575269427        688.8902126986795        1279.452559430743        960.9389757856558
3.8000000000000003       2.3614997654206383E8     732.9568131149458        688.772484363558         1279.5732306873028       960.9406896624799
3.9000000000000004       2.3641154091488206E8     732.9142687029243        688.6547560283566        1279.6939019438637       960.9424035393048
4                        2.366731052876785E8      732.8717242909275        688.5370276931998        1279.8145732004236       960.944117416129
4.1000000000000005       2.3693466966044915E8     732.8291798789276        688.4192993580677        1279.935244456984        960.9458312929536
4.2                      2.3719623403324458E8     732.786635466912         688.3015710228981        1280.0559157135444       960.947545169778
4.3                      2.374577984060443E8      732.7440910549387        688.1838426877181        1280.1765869701044       960.9492590466024
4.4                      2.3771936277883118E8     732.7015466429193        688.0661143525915        1280.2972582266652       960.950972923427
4.5                      2.3798092715163615E8     732.659002230919         687.9483860174297        1280.4179294832252       960.9526868002514
4.6000000000000005       2.382424915244185E8      732.6164578188979        687.8306576822878        1280.5386007397856       960.954400677076
4.7                      2.3850405589716855E8     732.5739134069049        687.712929347113         1280.659271996346        960.9561145539004
4.800000000000001        2.387656202699843E8      732.5313689949083        687.5952010119703        1280.7799432529064       960.957828430725
4.9                      2.3902718464281592E8     732.4888245829006        687.4774726768158        1280.9006145094663       960.9595423075494
5                        2.3928874901560855E8     732.446280170894         687.3597443416653        1281.0212857660267       960.9612561843738
5.1000000000000005       2.395503133884106E8      732.4037357588956        687.242016006502         1281.1419570225871       960.9629700611985
5.2                      2.3981187776118323E8     732.3611913469039        687.1242876713272        1281.262628279147        960.9646839380229
5.300000000000001        2.4007344213396007E8     732.3186469348936        687.0065593361865        1281.383299535708        960.9663978148475
5.4                      2.4033500650673288E8     732.2761025228654        686.8888310010277        1281.5039707922679       960.9681116916719
5.5                      2.405965708795428E8      732.2335581109036        686.7711026658502        1281.6246420488283       960.969825568496
5.6000000000000005       2.408581352523422E8      732.1910136988834        686.6533743307061        1281.7453133053887       960.9715394453207
5.7                      2.411196996251694E8      732.1484692868788        686.5356459955698        1281.865984561949        960.9732533221451
5.800000000000001        2.4138126399794656E8     732.1059248748539        686.4179176604134        1281.9866558185095       960.9749671989697
5.9                      2.416428283706959E8      732.0633804628742        686.3001893252052        1282.1073270750694       960.9766810757941
6                        2.4190439274348873E8     732.0208360508599        686.182460990086         1282.2279983316298       960.9783949526185
6.1000000000000005       2.42165957116327E8       731.9782916388782        686.0647326549332        1282.3486695881902       960.9801088294431
6.2                      2.4242752148910186E8     731.9357472268496        685.9470043197487        1282.4693408447506       960.9818227062675
6.300000000000001        2.4268908586187136E8     731.8932028148763        685.8292759846116        1282.590012101311        960.9835365830921
6.4                      2.429506502346742E8      731.8506584028372        685.7115476494405        1282.710683357871        960.9852504599165
6.5                      2.434917154612001E8      731.7859550889573        685.5339230901052        1283.0420030600972       960.9918205066455
6.6000000000000005       2.4403278068769518E8     731.7212517750503        685.3562985307655        1283.373322762323        960.9983905533742
6.7                      2.445738459141746E8      731.6565484611349        685.1786739714184        1283.7046424645491       961.0049606001031
6.800000000000001        2.4511491114071307E8     731.5918451472256        685.0010494120621        1284.0359621667749       961.0115306468321
6.9                      2.4565597636711207E8     731.5271418333105        684.8234248527353        1284.3672818690006       961.018100693561
7                        2.4619704159369692E8     731.4624385194096        684.6458002933931        1284.6986015712268       961.0246707402899
7.1000000000000005       2.4673810682015973E8     731.3977352055147        684.4681757340239        1285.0299212734526       961.0312407870186
7.2                      2.472791720466904E8      731.3330318915902        684.2905511746808        1285.3612409756788       961.0378108337476
7.300000000000001        2.4782023727319306E8     731.268328577681         684.1129266153326        1285.692560677905        961.0443808804763
7.4                      2.483613024996803E8      731.2036252638006        683.9353020559917        1286.0238803801308       961.0509509272055
7.5                      2.4890236772617716E8     731.1389219498781        683.7576774966477        1286.3552000823565       961.0575209739344
7.6000000000000005       2.4944343295267683E8     731.0742186359746        683.5800529373083        1286.6865197845827       961.0640910206631
7.7                      2.4998449817917886E8     731.0095153220511        683.4024283779773        1287.0178394868085       961.070661067392
7.800000000000001        2.5052556340567598E8     730.9448120082124        683.2248038186193        1287.3491591890347       961.0772311141208
7.9                      2.5106662863219517E8     730.880108694265         683.0471792592849        1287.6804788912605       961.0838011608499
8                        2.5160769385867092E8     730.8154053803588        682.8695546999062        1288.0117985934862       961.0903712075786
8.1                      2.5214875908515745E8     730.7507020664718        682.6919301406019        1288.3431182957124       961.0969412543076
8.200000000000001        2.5268982431168625E8     730.6859987525805        682.5143055811972        1288.6744379979382       961.1035113010365
8.3                      2.5323088953818187E8     730.6212954386651        682.3366810218718        1289.0057577001644       961.1100813477652
8.4                      2.5377195476463866E8     730.5565921247626        682.1590564625219        1289.3370774023902       961.1166513944944
8.5                      2.5431301999114588E8     730.4918888108494        681.9814319032029        1289.668397104616        961.1232214412231
8.6                      2.5485408521767607E8     730.4271854969575        681.8038073438059        1289.9997168068421       961.129791487952
8.700000000000001        2.5539515044418153E8     730.3624821830406        681.6261827844994        1290.3310365090679       961.136361534681
8.8                      2.5593621567066154E8     730.29777886915          681.448558225144         1290.662356211294        961.1429315814097
8.9                      2.5647728089713943E8     730.2330755552103        681.2709336657847        1290.9936759135203       961.1495016281389
9                        2.570183461236277E8      730.1683722413164        681.0933091064687        1291.324995615746        961.1560716748676
9.1                      2.575594113501632E8      730.1036689274056        680.9156845471232        1291.6563153179718       961.1626417215965
9.200000000000001        2.5810047657668278E8     730.038965613514         680.7380599877602        1291.987635020198        961.1692117683255
9.3                      2.5864154180313477E8     729.9742622996001        680.5604354284106        1292.3189547224238       961.1757818150542
9.4                      2.5918260702965435E8     729.9095589856898        680.3828108690819        1292.65027442465         961.1823518617831
9.5                      2.5972367225614965E8     729.8448556717851        680.2051863097331        1292.9815941268757       961.188921908512
9.600000000000001        2.6026473748267713E8     729.7801523578863        680.0275617503577        1293.3129138291015       961.195491955241
9.700000000000001        2.6111280289761412E8     729.7124865206292        679.8120197134697        1293.9789100722496       961.2149132870223
9.8                      2.6196086831255502E8     729.6448206833701        679.5964776765676        1294.6449063153973       961.2343346188037
9.9                      2.628089337275116E8      729.5771548460925        679.3809356397114        1295.3109025585454       961.2537559505851
10                       2.636569991424604E8      729.5094890088432        679.1653936027898        1295.976898801693        961.2731772823666
10.100000000000001       2.6450506455741742E8     729.4418231715705        678.9498515659061        1296.6428950448412       961.292598614148
10.200000000000001       2.6535312997238255E8     729.374157334306         678.7343095290242        1297.308891287989        961.3120199459291
10.3                     2.6620119538734302E8     729.3064914970425        678.5187674920988        1297.9748875311366       961.3314412777107
10.4                     2.670492608022536E8      729.2388256597502        678.3032254552012        1298.6408837742842       961.3508626094923
10.5                     2.6789732621726012E8     729.1711598225099        678.0876834183355        1299.3068800174324       961.3702839412734
10.600000000000001       2.6874539163223237E8     729.103493985258         677.8721413814103        1299.97287626058         961.3897052730548
10.700000000000001       2.6959345704720306E8     729.0358281479714        677.6565993445219        1300.6388725037277       961.4091266048364
10.8                     2.704415224621234E8      728.9681623107211        677.4410573076004        1301.3048687468759       961.4285479366177
10.9                     2.7128958787710595E8     728.9004964734593        677.2255152707106        1301.9708649900235       961.4479692683991
11                       2.7213765329207104E8     728.8328306361907        677.0099732338434        1302.6368612331712       961.4673906001805
11.100000000000001       2.729857187070017E8      728.7651647989322        676.7944311969518        1303.3028574763193       961.486811931962
11.200000000000001       2.738337841219664E8      728.6974989616507        676.5788891600574        1303.968853719467        961.5062332637434
11.3                     2.746818495369529E8      728.6298331243981        676.3633471231472        1304.6348499626147       961.5256545955248
11.4                     2.7552991495187044E8     728.562167287162         676.1478050862318        1305.3008462057628       961.5450759273061
11.5                     2.763779803668662E8      728.4945014498672        675.9322630493489        1305.9668424489105       961.5644972590877
11.600000000000001       2.7722604578174543E8     728.4268356126113        675.7167210124711        1306.6328386920582       961.5839185908688
11.700000000000001       2.7807411119675475E8     728.3591697753274        675.5011789755544        1307.2988349352063       961.6033399226502
11.8                     2.789221766116827E8      728.2915039380895        675.2856369386808        1307.964831178354        961.6227612544318
11.9                     2.797702420266099E8      728.2238381007883        675.0700949017489        1308.630827421502        961.6421825862132
12                       2.8061830744159347E8     728.1561722635478        674.8545528648827        1309.2968236646498       961.6616039179945
12.100000000000001       2.81466372856603E8       728.0885064262787        674.6390108280048        1309.962819907798        961.6810252497759
12.200000000000001       2.823144382715383E8      728.0208405890052        674.4234687910653        1310.6288161509456       961.7004465815575
12.3                     2.831625036864889E8      727.9531747517501        674.2079267541978        1311.2948123940932       961.7198679133386
12.4                     2.840105691014607E8      727.8855089144736        673.9923847173119        1311.9608086372414       961.7392892451202
12.5                     2.8485863451642936E8     727.8178430772061        673.7768426804338        1312.626804880389        961.7587105769015
12.600000000000001       2.8570669993137026E8     727.7501772399546        673.5613006435104        1313.2928011235367       961.7781319086831
12.700000000000001       2.8655476534635025E8     727.682511402673         673.345758606633         1313.9587973666848       961.7975532404643
12.8                     2.8740283076123667E8     727.6148455654254        673.1302165697051        1314.6247936098325       961.8169745722456
12.9                     2.8826865560519964E8     727.5969528376569        672.9815327474402        1315.6845763389356       961.9071449146326
13                       2.8913448044914806E8     727.5790601099105        672.8328489251669        1316.7443590680386       961.9973152570191
13.100000000000001       2.900003052930315E8      727.5611673821438        672.6841651028668        1317.8041417971417       962.0874855994056
13.200000000000001       2.908661301369184E8      727.5432746543987        672.5354812806028        1318.8639245262448       962.1776559417923
13.3                     2.917319549808091E8      727.525381926658         672.3867974583309        1319.9237072553483       962.2678262841788
13.4                     2.925977798247388E8      727.5074891988841        672.2381136360307        1320.983489984451        962.3579966265655
13.5                     2.934636046686392E8      727.4895964711101        672.0894298137555        1322.0432727135544       962.4481669689523
13.600000000000001       2.9432942951254636E8     727.4717037433585        671.9407459914598        1323.103055442657        962.5383373113388
13.700000000000001       2.9519525435646164E8     727.4538110155919        671.7920621691729        1324.1628381717605       962.6285076537253
13.8                     2.9606107920032954E8     727.4359182878487        671.6433783469179        1325.2226209008631       962.718677996112
13.9                     2.96926904044288E8       727.418025560088         671.4946945246127        1326.2824036299667       962.8088483384987
14                       2.977927288881922E8      727.4001328323366        671.3460107023506        1327.3421863590693       962.8990186808852
14.100000000000001       2.986585537320639E8      727.3822401046065        671.1973268800978        1328.4019690881728       962.9891890232719
14.200000000000001       2.9952437857599086E8     727.3643473768403        671.0486430578007        1329.4617518172759       963.0793593656584
14.3                     3.003902034199184E8      727.3464546490877        670.8999592354876        1330.521534546379        963.1695297080449
14.4                     3.012560282638083E8      727.3285619213121        670.7512754132198        1331.581317275482        963.2597000504319
14.5                     3.021218531077759E8      727.3106691935515        670.6025915909582        1332.641100004585        963.3498703928184
14.600000000000001       3.029876779516517E8      727.2927764657944        670.4539077686625        1333.700882733688        963.4400407352049
14.700000000000001       3.0385350279552907E8     727.274883738056         670.3052239463943        1334.7606654627912       963.5302110775916
14.8                     3.047193276394834E8      727.2569910102917        670.1565401241219        1335.8204481918942       963.6203814199781
14.9                     3.055851524833812E8      727.2390982825506        670.0078563018672        1336.8802309209977       963.7105517623646
15                       3.064509773272638E8      727.2212055547851        669.859172479578         1337.9400136501004       963.8007221047516
15.100000000000001       3.0731680217114204E8     727.2033128270114        669.7104886572505        1338.9997963792039       963.8908924471381
15.200000000000001       3.081826270150657E8      727.1854200992591        669.561804835009         1340.0595791083065       963.9810627895246
15.3                     3.0904845185899264E8     727.1675273715045        669.4131210127085        1341.11936183741         964.0712331319113
15.4                     3.0991427670288247E8     727.1496346437547        669.2644371904543        1342.179144566513        964.1614034742978
15.5                     3.1078010154683656E8     727.1317419159801        669.1157533681728        1343.2389272956161       964.2515738166845
15.600000000000001       3.116459263907363E8      727.1138491882714        668.9670695458759        1344.2987100247192       964.3417441590713
15.700000000000001       3.125117512346845E8      727.0959564604825        668.8183857235954        1345.3584927538222       964.4319145014578
15.8                     3.1337757607861936E8     727.0780637326941        668.6697019013146        1346.4182754829253       964.5220848438445
15.9                     3.1424340092243785E8     727.060171004966         668.5210180790281        1347.4780582120284       964.612255186231
16                       3.1510922576636523E8     727.0422782772011        668.3723342567513        1348.5378409411314       964.7024255286177
16.1                     3.1597505061028546E8     727.0243855494563        668.2236504344557        1349.5976236702345       964.7925958710044
16.2                     3.168408754541854E8      727.006492821701         668.0749666121828        1350.657406399338        964.8827662133909
16.3                     3.177067002981528E8      726.988600093943         667.9262827899062        1351.7171891284406       964.9729365557774
16.400000000000002       3.1857252514196676E8     726.9707073661791        667.7775989676251        1352.7769718575441       965.0631068981642
16.5                     3.194383499858777E8      726.9528146384553        667.6289151453178        1353.8367545866467       965.1532772405509
16.6                     3.203041748298197E8      726.9349219106601        667.4802313230454        1354.8965373157503       965.2434475829374
16.7                     3.2116999967373836E8     726.9170291828977        667.331547500788         1355.9563200448533       965.3336179253241
16.8                     3.2203582451764935E8     726.8991364551356        667.182863678497         1357.0161027739564       965.4237882677106
16.900000000000002       3.2290164936156577E8     726.8812437274175        667.0341798562358        1358.0758855030595       965.5139586100971
17                       3.237674742054531E8      726.8633509996615        666.88549603395          1359.1356682321625       965.6041289524841
17.1                     3.2463329904931563E8     726.8454582718875        666.7368122116527        1360.1954509612656       965.6942992948706
17.2                     3.2549912389329654E8     726.8275655441424        666.5881283893756        1361.2552336903686       965.7844696372571
17.3                     3.263649487371903E8      726.8096728163752        666.4394445671159        1362.3150164194717       965.8746399796438
17.400000000000002       3.2723077358113915E8     726.7917800886245        666.2907607448169        1363.3747991485752       965.9648103220303
17.5                     3.2809659842504674E8     726.7738873608847        666.1420769225391        1364.4345818776778       966.0549806644168
17.6                     3.289624232689201E8      726.7559946330759        665.9933931002696        1365.4943646067813       966.1451510068038
17.7                     3.2982824811288095E8     726.7381019053514        665.844709277964         1366.554147335884        966.2353213491903
17.8                     3.306940729567401E8      726.720209177598         665.6960254556977        1367.6139300649875       966.3254916915768
17.900000000000002       3.3155989780056345E8     726.7023164498557        665.547341633436         1368.67371279409         966.4156620339635
18                       3.324257226445758E8      726.6844237220954        665.3986578111402        1369.7334955231936       966.50583237635
18.1                     3.332915474885097E8      726.6665309943525        665.2499739888806        1370.7932782522962       966.5960027187365
18.2                     3.341573723323322E8      726.6486382666029        665.1012901666021        1371.8530609813997       966.6861730611234
18.3                     3.350231971763437E8      726.6307455388012        664.9526063443163        1372.9128437105028       966.7763434035099
18.400000000000002       3.358890220202493E8      726.6128528110635        664.8039225219877        1373.9726264396058       966.8665137458964
18.5                     3.36754846864146E8       726.5949600832947        664.6552386997618        1375.032409168709        966.9566840882832
18.6                     3.375373086478411E8      726.5890950696663        664.5290115133862        1376.1145960016802       967.082705266456
18.7                     3.3819472584118325E8     726.6012716272118        664.4364692808401        1377.2303889904538       967.2625026983077
18.8                     3.3885214303458846E8     726.6134481847483        664.3439270483098        1378.3461819792274       967.4423001301594
18.900000000000002       3.39509560227995E8       726.6256247423078        664.2513848157988        1379.461974968001        967.6220975620112
19                       3.401669774213757E8      726.6378012998506        664.1588425832856        1380.577767956774        967.8018949938629
19.1                     3.408243946147473E8      726.6499778574063        664.0663003507495        1381.6935609455481       967.9816924257144
19.200000000000003       3.4148181180812615E8     726.6621544149428        663.9737581182544        1382.8093539343213       968.1614898575662
19.3                     3.421392290015948E8      726.6743309724944        663.8812158857301        1383.9251469230953       968.3412872894179
19.400000000000002       3.427966461949167E8      726.6865075300651        663.7886736532075        1385.0409399118685       968.5210847212696
19.5                     3.434540633883127E8      726.6986840876067        663.6961314206861        1386.156732900642        968.7008821531214
19.6                     3.441114805817977E8      726.7108606451494        663.6035891881523        1387.2725258894156       968.8806795849731
19.700000000000003       3.4476889777508914E8     726.7230372026844        663.5110469555734        1388.3883188781892       969.0604770168248
19.8                     3.454263149685269E8      726.7352137602612        663.418504723093         1389.5041118669628       969.2402744486766
19.900000000000002       3.460837321618415E8      726.7473903178009        663.3259624905676        1390.6199048557364       969.4200718805283
20                       3.4674114935532653E8     726.7595668753471        663.2334202580287        1391.73569784451         969.5998693123801
20.1                     3.473985665486946E8      726.7717434329008        663.1408780255274        1392.8514908332836       969.7796667442318
20.200000000000003       3.480559837420842E8      726.7839199904514        663.0483357930026        1393.9672838220572       969.9594641760835
20.3                     3.4871340093553525E8     726.796096547974         662.9557935604873        1395.0830768108303       970.1392616079353
20.400000000000002       3.493708181288294E8      726.8082731055462        662.8632513279451        1396.1988697996044       970.3190590397868
20.5                     3.500282353221833E8      726.8204496630493        662.7707090954282        1397.3146627883775       970.4988564716385
20.6                     3.506856525156331E8      726.8326262206232        662.6781668628945        1398.430455777151        970.6786539034903