% Model:              ss.mph
% Version:            COMSOL 5.3.0.260
% Date:               Dec 13 2017, 15:34
% Dimension:          2
% Nodes:              1330
% Expressions:        14
% Description:        , , , , , , , , , , , , , 
% Length unit:        m
% cpl1x                   cpl1y                    PdensityN (W/m^3)        Flux2 (1/(m^2*s))        Flux3 (1/(m^2*s))        Flux4 (1/(m^2*s))        Flux5 (1/(m^2*s))        Flux6 (1/(m^2*s))        Flux7 (1/(m^2*s))        Flux8 (1/(m^2*s))        Conc1 (1/(m^2*s))        Conc2 (1/(m^2*s))        Conc3 (1/(m^2*s))        Conc4 (1/(m^2*s))        Conc5 (1/(m^2*s))        Conc6 (1/(m^2*s))
0.025                     0.48                     0                        0.0029042648462307037    0.014225526979989238     0.009480251489242579     0.06077789136789932      0.3500406563019764       0.5013788134390201       0.14531285327673218      8.23453287351945E-8      1.9683836732197828E-7    5.00425324294806E-8      4.729966836913388E-8     3.554771527606158E-9     1.8987612994017638E-10
0.07500000000000001       0.48                     0                        0.0036885912096281085    0.017215600999330477     0.01125008850344898      0.06149329781845663      0.3498192736516575       0.500325436345527        0.14493926346964522      1.4340907669692814E-7    3.4281533377150403E-7    8.715401213769545E-8     8.237761519179337E-8     6.1911363416213365E-9    3.3075556816283694E-10
0.125                     0.48                     0                        0.004863471402472795     0.021384627992558348     0.013656654602613637     0.06247260816336211      0.34863772222657613      0.4982630757897842       0.14441032568607962      -3.9763639091295656E-7   -9.505420395571113E-7    -2.4165606288236086E-7   -2.2841282437901542E-7   -1.7166531408628933E-8   -9.171649505979135E-10
0.17500000000000002       0.48                     0                        0.008530512948815376     0.03429117606405382      0.021067039940345464     0.06585339009359151      0.34191738459724785      0.49148689813383284      0.14326871802062774      5.2171593730090824E-6    1.2471396100982858E-5    3.1706069413604323E-6    2.996842998292672E-6     2.252283270231311E-7     1.2032638533596397E-8
0.225                     0.48                     0                        0.01578050412364992      0.053348736321615305     0.031054822389729154     0.0701508791320761       0.3307900230935587       0.4801225082697973       0.14103289241333233      -6.630594828304262E-6    -1.5848424554791034E-5   -4.029231319623874E-6    -3.808316128329075E-6    -2.8619691438973387E-7   -1.5282852126919067E-8
0.275                     0.48                     0                        0.026703558847495732     0.07753156117283848      0.04268881089116812      0.07379292004198401      0.3203504998545504       0.4634222502161073       0.13625288847688974      -1.640881846404513E-5    -3.9219632950086364E-5   -9.9710525429891E-6      -9.424321749669933E-6    -7.082356387020275E-7    -3.7816807748994557E-8
0.32500000000000007       0.48                     0                        0.04935238205386818      0.11621673202721627      0.05864245217585104      0.07618714952524339      0.30516291435605203      0.4321328668372886       0.12584234743569483      1.8735197109487909E-4    4.477947694380199E-4     1.1384592888950231E-4    1.0760324399996688E-4    8.086300975606939E-6     4.3175160330398226E-7
0.37500000000000006       0.48                     0                        0.08286652361519076      0.1643001865804933       0.07508417381910822      0.07589525643692453      0.2809553954722036       0.38356593150386353      0.1098895272125078       -0.0010161291331698707   -0.002429110835335998    -6.175490143910901E-4    -5.837098170585688E-4    -4.386984201528957E-5    -2.344114341919365E-6
0.42500000000000004       0.48                     0                        0.1547608582467369       0.24024538573349782      0.08928337204379068      0.07786236209191354      0.21726833918179966      0.280987440086376        0.07768471473251781      0.002615833393023431     0.006253046259628067     0.0015897135170208827    0.0015025903225619089    1.1292757217389705E-4    6.033111923025725E-6
0.47500000000000003       0.48                     0                        0.20067883879389325      0.2816594171092155       0.09315364549181346      0.08002016792208193      0.1748094705264215       0.21718324255603635      0.057970936680736745     0.006669619513217022     0.015943439110535442     0.004053305579573857     0.0038311656231402873    2.879320299899218E-4     1.5382565551623717E-5
0.525                     0.48                     0                        0.24193374842003207      0.3130958565168569       0.09147293641237908      0.08010685458349266      0.13481312464865092      0.16033669964636343      0.041272684280776996     0.007345197570293206     0.017558372011062418     0.004463870832352813     0.0042192295871259925    3.170969785937284E-4     1.6940651971583062E-5
0.5750000000000001        0.48                     0                        0.25890680063728966      0.32647862643485354      0.09076126340721272      0.07972369380732598      0.11705258783482111      0.13509273058665613      0.03394646873372224      0.00701856028799151      0.01677755865820782      0.0042653644505862235    0.004031602224183492     3.0299579605132666E-4    1.6187302359581348E-5
0.6250000000000001        0.48                     0                        0.2589068006372898       0.3264786264348537       0.09076126340721276      0.07972369380732602      0.1170525878348212       0.13509273058665622      0.033946468733722264     0.007018560287991513     0.016777558658207826     0.004265364450586226     0.004031602224183493     3.029957960513268E-4     1.6187302359581355E-5
0.675                     0.48                     0                        0.26088053363187214      0.3273467350736513       0.09037599736069041      0.07930309113472399      0.11398355694508655      0.13074272312331423      0.03259176005061945      0.007523905988048133     0.01798556428615242      0.00457247617898502      0.004321882718403786     3.2481186944986214E-4    1.735280426505983E-5
0.7250000000000001        0.48                     0                        0.21212858324943237      0.2875114587769342       0.08599570436552981      0.077366866865387        0.12779782008113527      0.15172569321503201      0.03936143877885226      0.005867846267253132     0.01402682614070129      0.0035660448533373955    0.0033706085834329376    2.5331868437897015E-4    1.3533337502256181E-5
0.775                     0.48                     0                        0.1520678426365834       0.23919050158295588      0.0811723971914049       0.0753081766805215       0.14735611238716026      0.18114916588633492      0.048801721030714715     0.0033984492200451314    0.008123841886804182     0.0020653271350702866    0.001952137345635898     1.467132250722477E-4     7.838029828456975E-6
0.8250000000000001        0.48                     0                        0.1520678426365834       0.23919050158295585      0.0811723971914049       0.0753081766805215       0.14735611238716023      0.18114916588633492      0.048801721030714715     0.0033984492200451314    0.00812384188680418      0.002065327135070286     0.001952137345635898     1.467132250722477E-4     7.838029828456975E-6
0.8750000000000001        0.48                     0                        4.4219130754791225E-4    0.029749849315894514     0.020641702818715087     0.03448723008559368      0.21333142234624033      0.300991031775856        0.08673110066011969      -5.576823073682745E-4    -0.0013331148867621481   -3.389182590392975E-4    -3.203439251612516E-4    -2.4075506898078358E-5   -1.2862140173029883E-6
0.925                     0.48                     0                        -0.0014906206931682533   0.027080054313588873     0.019870102159659498     0.03396687475806368      0.21417242695015895      0.30251868751582595      0.08721459642409399      -6.08112154993483E-4     -0.0014536651985463844   -3.6956580653320717E-4   -3.49311840768539E-4     -2.6252595720753918E-5   -1.4025231500121744E-6
0.9750000000000001        0.48                     0                        -0.0014906206931682526   0.027080054313588862     0.01987010215965949      0.03396687475806367      0.21417242695015887      0.30251868751582583      0.08721459642409396      -6.081121549934826E-4    -0.0014536651985463838   -3.69565806533207E-4     -3.493118407685388E-4    -2.6252595720753904E-5   -1.4025231500121738E-6
1.025                     0.48                     0                        -0.0014906206931682522   0.027080054313588852     0.019870102159659484     0.03396687475806366      0.2141724269501588       0.3025186875158257       0.08721459642409393      -6.081121549934825E-4    -0.0014536651985463834   -3.695658065332069E-4    -3.4931184076853876E-4   -2.6252595720753897E-5   -1.4025231500121736E-6
1.075                     0.48                     0                        -0.0014906206931682513   0.027080054313588838     0.019870102159659474     0.03396687475806364      0.2141724269501587       0.30251868751582556      0.08721459642409388      -6.081121549934822E-4    -0.0014536651985463827   -3.6956580653320673E-4   -3.4931184076853855E-4   -2.6252595720753884E-5   -1.4025231500121727E-6
1.125                     0.48                     0                        -0.00128490032245458     0.02377609781492159      0.017456447630522353     0.031046751179555927     0.20010874292674338      0.283443301199058        0.08177974710371005      -5.406731269692981E-4    -0.0012924551868818068   -3.2858132928701296E-4   -3.1057350807277604E-4   -2.3341209142130435E-5   -1.2469847392214249E-6
1.175                     0.48                     0                        -2.1567533397170405E-4   0.006603890527038051     0.0049115561005034945    0.015869503108463495     0.12701319902996333      0.18429959635302706      0.05353229313581098      -1.90160954974352E-4     -4.545713532711306E-4    -1.1556583131024397E-4   -1.092322739170092E-4    -8.209371346006037E-6    -4.3857886813804157E-7
1.225                     0.48                     0                        3.515375471217945E-4     -0.002505789171259787    -0.001743380086354416    0.007818128796972698     0.08823676329811841      0.13170487861472088      0.038547308758087005     -4.217845640841158E-6    -1.0082580184820976E-5   -2.563296178317934E-6    -2.422815909058611E-6    -1.8208671926195168E-7   -9.727851589386631E-9
1.275                     0.48                     0                        3.515375471217946E-4     -0.002505789171259788    -0.0017433800863544163   0.0078181287969727       0.08823676329811844      0.1317048786147209       0.03854730875808702      -4.21784564084116E-6     -1.0082580184820979E-5   -2.5632961783179347E-6   -2.422815909058612E-6    -1.8208671926195174E-7   -9.727851589386634E-9
1.325                     0.48                     0                        3.515375471217947E-4     -0.002505789171259789    -0.0017433800863544172   0.007818128796972704     0.08823676329811848      0.13170487861472097      0.03854730875808703      -4.217845640841161E-6    -1.0082580184820984E-5   -2.563296178317936E-6    -2.422815909058613E-6    -1.8208671926195182E-7   -9.72785158938664E-9
1.375                     0.48                     0                        2.0530352067686094E-4    -0.0013836086513220071   -9.679958797454368E-4    0.006937469453978298     0.0737940553030147       0.10971487025386323      0.032077951984201006     -1.882531897051675E-5    -4.500109721860877E-5    -1.1440643221673418E-5   -1.0813641944971758E-5   -8.127008961097718E-7    -4.34178796428153E-8
1.425                     0.48                     0                        -7.027489658642904E-5    7.311435652874506E-4     4.932177490040806E-4     0.005277864546758462     0.04657673313083662      0.06827464018556484      0.019886431694424972     -4.6353141860106474E-5   -1.1080513675229451E-4   -2.8170027669184848E-5   -2.6626176241695688E-5   -2.0010950132953166E-6   -1.0690682837948845E-7
1.475                     0.48                     0                        -1.3598849528497262E-4   0.0012354210043162052    8.416543463474369E-4     0.004882120163166249     0.04008657252742954      0.058392927837671756     0.016979278515291678     -5.2917343528638426E-5   -1.264965696649392E-4    -3.2159266256788374E-5   -3.039678550602392E-5    -2.2844758922769583E-6   -1.220462117191064E-7
1.525                     0.48                     0                        -8.495273533914416E-5    5.99868894787313E-4      4.641317935457018E-4     0.003266680210835257     0.029398072317431606     0.043065741440974685     0.012551207252444914     -5.468308930194434E-6    -1.3071751052714423E-5   -3.3232357999869786E-6   -3.1411066695090946E-6   -2.3607045558960156E-7   -1.261186456371831E-8
1.575                     0.48                     0                        -4.093023012794917E-5    1.4639561798352832E-4    1.6654572609912005E-4    0.0017032504697255158    0.016861821537633215     0.024445326677384298     0.006940559120391468     1.1783180784980042E-5    2.816717207854782E-5     7.160949782696623E-6     6.7684956770673696E-6    5.086874981882921E-7     2.717620534131497E-8
1.625                     0.48                     0                        -2.0688885505797705E-5   4.8019303545560244E-5    6.0737292922896976E-5    7.61010276719837E-4      0.006931355318340105     0.009098058675275017     0.0021061086939637664    -8.665512751414848E-6    -2.0714525518384575E-5   -5.266260856696177E-6    -4.977644720758144E-6    -3.740957735911866E-7    -1.9985752134715645E-8
1.675                     0.48                     0                        -1.4992815659312829E-5   1.9949697116330737E-5    2.5988987940989863E-5    2.3004703099613262E-4    0.002089965475146654     0.002317434336027138     4.077364447879672E-4     1.0987155734690538E-6    2.626429658751097E-6     6.67718140003165E-7      6.311239756309945E-7     4.743223933151298E-8     2.534064636324045E-9
1.725                     0.48                     0                        -7.02045650364787E-6     9.035514174972785E-6     1.3047063416194022E-5    8.315697742167071E-5     7.689963166786824E-4     8.056354990732444E-4     1.3926409131525096E-4    -5.609163519550043E-7    -1.3408463503736414E-6   -3.4088368725411703E-7   -3.2220178062194793E-7   -2.4215159676902833E-8   -1.2936728432453966E-9
0.025                     0.62                     0                        0.008302959559210489     0.041671494657987584     0.02803115223719623      0.19200563024011993      1.1108527832201722       1.5919624672382473       0.46147356230084724      4.9779937382398605E-8    1.1901018551264406E-7    3.0255338353142935E-8    2.859802696986816E-8     2.1494291437724147E-9    1.1486488380743329E-10
0.07500000000000001       0.62                     0                        0.010740318633908784     0.0511282299375075       0.033655985107172576     0.1942635742848845       1.109742269555694        1.5882481152535197       0.4602017564789394       2.4865301442140315E-7    5.943971091178007E-7     1.5111362985150453E-7    1.4283211121524425E-7    1.0734573557047751E-8    5.734716872205949E-10
0.125                     0.62                     0                        0.01611043452845386      0.07122091990931076      0.04545888392940423      0.198898804736618        1.1057288786452544       1.5785998437207498       0.4573021770507723       -7.154381675550167E-7    -1.710167468155735E-6    -4.3477919905153876E-7   -4.1094814916918913E-7   -3.0884306082804676E-8   -1.6497757264352985E-9
0.17500000000000002       0.62                     0                        0.02686245240871415      0.1092521487424804       0.06728839599403846      0.20913096595958763      1.0842104294131896       1.558397806975672        0.454320396345156        -6.785149548563636E-6    -1.622129375110512E-5    -4.123865373531971E-6    -3.89795069323048E-6     -2.9296869435577235E-7   -1.5658483309456875E-8
0.225                     0.62                     0                        0.04617159047113409      0.16467084256335623      0.09739800032520352      0.2230899854242938       1.050398823596089        1.5276021592268456       0.4492210681930231       -3.897108297476368E-6    -9.310698393583046E-6    -2.3673052373536083E-6   -2.237282681203764E-6    -1.6808986918945297E-7   -8.958948641139245E-9
0.275                     0.62                     0                        0.08264099500221878      0.2487648944464681       0.13848755521392406      0.23558668256282483      1.0171752889266559       1.4715536782503795       0.43257325326183144      3.165476255842126E-4     7.565967716455864E-4     1.923543920838271E-4     1.81807180387509E-4      1.3662753967911729E-5    7.295282421630264E-7
0.32500000000000007       0.62                     0                        0.15577398769191922      0.37468809656387786      0.19111833826862987      0.24009247187528096      0.9716542224833853       1.3693725602808626       0.3981145859713975       -0.0010529468661533798   -0.002516694489032643    -6.398355661400169E-4    -6.047515452621744E-4    -4.5446810541869054E-5   -2.4266179202793764E-6
0.37500000000000006       0.62                     0                        0.27867121293351627      0.5280371282198149       0.23355798404425707      0.24344875261675863      0.8721935517138196       1.1940486249979525       0.3418975949325815       0.0018250704088829753    0.004363130250353321     0.0011092221981049968    0.0010484523655751733    7.880056197897008E-5     4.211406255964642E-6
0.42500000000000004       0.62                     0                        0.4768502832114105       0.7450287953963748       0.2774261901587907       0.2469741870162475       0.6975136804528891       0.9091477678068813       0.25252419387789266      0.008919080808232584     0.02132074031607286      0.005420375718636902     0.005123317290443267     3.8504457773057374E-4    2.0570981954321598E-5
0.47500000000000003       0.62                     0                        0.6640794286940539       0.9208937493675795       0.2981328093485703       0.2517778706742867       0.5299143884028082       0.6514672668718077       0.17304045852923255      0.018416034174340352     0.04402266929715683      0.011191900456318543     0.010578528550070068     7.950307376148434E-4     4.247367145275052E-5
0.525                     0.62                     0                        0.7473817063739305       0.9809391731399775       0.292316815065146        0.25123505253427597      0.4437793980530233       0.5301051176805365       0.13725188044961603      0.021540080472045885     0.05149058289678744      0.013090469790162904     0.012373048297431001     9.298983893265045E-4     4.967894196467884E-5
0.5750000000000001        0.62                     0                        0.8361939749102174       1.0454573341427553       0.2871683112970679       0.2517903995085135       0.35611191789868346      0.40652211323341814      0.10070335514925063      0.025169757060461376     0.06016718821665245      0.015296325003984479     0.014458013463556076     0.0010865945688645557    5.805040340570308E-5
0.6250000000000001        0.62                     0                        0.7511712866556153       0.9767920802816721       0.2801352619644252       0.24917804007177854      0.3829286894468624       0.44687790365564034      0.11367437105291354      0.021787854441971292     0.05208289952546387      0.013241053522359015     0.01251538063456144      9.405956487836963E-4     5.02505317856801E-5
0.675                     0.62                     0                        0.6479741378362869       0.8937663806356609       0.27184779259307656      0.24564077171290308      0.41653400268745516      0.4974336986235147       0.12989478729322704      0.017544904189036578     0.041940314896774654     0.01066250074183133      0.010078144830786452     7.574247565041042E-4     4.046477976884296E-5
0.7250000000000001        0.62                     0                        0.5447769890169583       0.8107406809896497       0.2635603232217279       0.24210350335402767      0.450139315928048        0.5479894935913893       0.1461152035335406       0.013301953936101849     0.03179773026808542      0.008083947961303642     0.00764090902701146      5.742538642245117E-4     3.0679027752005794E-5
0.775                     0.62                     0                        0.4847162484041093       0.7624197237956715       0.258737016047603        0.24004481316916218      0.469697608234073        0.5774129662626922       0.15555548578540307      0.01083255688889385      0.02589474601418831      0.006583230243036534     0.006222437789214421     4.676484049177893E-4     2.498372007820659E-5
0.8250000000000001        0.62                     0                        0.35081215303705415      0.5774578731517602       0.20528096952203337      0.2039948976178748       0.5279619198409573       0.6832480706686928       0.18905179213324932      0.00733880626894228      0.01754309027131039      0.004459985912563518     0.00421555738251903      3.1682095288102684E-4    1.6925890763933136E-5
0.8750000000000001        0.62                     0                        0.15340951561092764      0.30478542769563327      0.1264755786817065       0.1508497836517479       0.6138556988735466       0.839271145875951        0.23843235214504696      0.0021882872725136793    0.005231003280991372     0.001329879775133428     0.0012569960017447352    9.446974885919058E-5     5.04696537179396E-6
0.925                     0.62                     0                        -0.004751353459473807    0.08631767312456452      0.06333595063391464      0.108269413291328        0.6826746109036317       0.9642783164566953       0.2779965261017996       -0.0019383574940417267   -0.0046335578203666      -0.001177991008324598    -0.001113431492449718    -8.368014885990311E-5    -4.470542540663806E-6
0.9750000000000001        0.62                     0                        -0.004751353459473806    0.08631767312456451      0.06333595063391464      0.10826941329132797      0.6826746109036316       0.964278316456695        0.27799652610179953      -0.0019383574940417265   -0.004633557820366599    -0.0011779910083245977   -0.0011134314924497177   -8.36801488599031E-5     -4.470542540663806E-6
1.025                     0.62                     0                        -0.004658866706412508    0.08483229660226174      0.062250831694855895     0.10695659848656654      0.6763519289694437       0.9557024980401355       0.2755531532589647       -0.001908038587314459    -0.004561081815739023    -0.001159565408500597    -0.0010960157032519331   -8.237126199260352E-5    -4.400616346478726E-6
1.075                     0.62                     0                        -0.003589641717929632    0.06766008931437821      0.04970594016483705      0.09177935041547412      0.6032563850726639       0.8565587931941048       0.24730569929106563      -0.001557526415319513    -0.003723197982128348    -9.465499105238283E-4    -8.946744690961665E-4    -6.723942419647913E-5    -3.592210475395343E-6
1.125                     0.62                     0                        -0.002520416729446756    0.050487882026494665     0.037161048634818186     0.0766021023443817       0.5301608411758837       0.7574150883480739       0.21905824532316656      -0.0012070142433245666   -0.0028853141485176716   -7.335344125470593E-4    -6.933332349403996E-4    -5.2107586400354714E-5   -2.7838046043119594E-6
1.175                     0.62                     0                        -0.00145119174096388     0.03331567473861113      0.02461615710479932      0.06142485427328927      0.45706529727910367      0.6582713835020431       0.1908107913552675       -8.565020713296206E-4    -0.0020474303149069957   -5.205189145702905E-4    -4.919920007846327E-4    -3.6975748604230326E-5   -1.9753987332285758E-6
1.225                     0.62                     0                        -1.0613171689597003E-4   0.014439589648133145     0.010713600818231975     0.044509665567567996     0.3763450978719958       0.5488560811860288       0.1596238967323103       -4.3595585929846715E-4   -0.0010421332045470247   -2.6494188206049006E-4   -2.504218065829287E-4    -1.8820496114577933E-5   -1.005469430218318E-6
1.275                     0.62                     0                        0.0018990595317143464    -0.008177887036352194    -0.006153962813060042    0.02392119400056637      0.2805334266368257       0.41937229391973924      0.12271931436355173      1.2557291539256834E-4    3.001764892586918E-4     7.631397461364547E-5     7.213160477681377E-5     5.421064536525204E-6     2.8961585830871453E-7
1.325                     0.62                     0                        0.0010154317389385879    -0.004185695332052339    -0.00320032185615978     0.020832374556316566     0.22282134678737767      0.33160566678622516      0.0970098371764225       -8.029460493395864E-5    -1.9194071637952992E-4   -4.879715076020913E-5    -4.6122835903872796E-5   -3.466369125807974E-6    -1.8518793632614605E-7
1.375                     0.62                     0                        7.31964532990853E-4      -0.0017169896894720176   -0.001513376582490036    0.018441008849278615     0.18698992581819235      0.2773092615477176       0.08107003187564309      -1.1124283435879123E-4   -2.6592108590649656E-4   -6.760520650214016E-5    -6.390012037515042E-5    -4.802424429943907E-6    -2.56565563441322E-7
1.425                     0.62                     0                        4.92679054260434E-4      6.082067397270563E-4     5.829897790676222E-5     0.01598723894696548      0.1516578052282845       0.22385219256271588      0.06537985462852375      -1.326820812494082E-4    -3.171706529111179E-4    -8.063440260104227E-5    -7.621525418088831E-5    -5.727970837587867E-6    -3.0601209129462134E-7
1.475                     0.62                     0                        2.5502212165051875E-4    0.0029135564309934795    0.0016172579949717113    0.013531565911564037     0.11641978453898605      0.1705455968368672       0.049734448204454815     -1.5361176909338973E-4   -3.67202141584717E-4     -9.335392622217631E-5    -8.82376870357054E-5     -6.631519250782798E-6    -3.542833948716166E-7
1.525                     0.62                     0                        2.7937873765829344E-4    0.001831435282155258     0.0010248162137108596    0.01054743876645372      0.0954888515210923       0.14035891727918362      0.04099477762879547      -7.815493441180197E-5    -1.8682591642368032E-4   -4.749681668377906E-5    -4.489376521380574E-5    -3.3739989926115272E-6   -1.8025310688535238E-7
1.575                     0.62                     0                        8.163391704863273E-5     8.897815476230592E-4     6.15155254116717E-4      0.006480473769896753     0.06109553566239111      0.08917971059769084      0.025676877170003554     -3.095669578854381E-6    -7.400062466860423E-6    -1.881320503945318E-6    -1.7782151655944672E-6   -1.3364212223526424E-7   -7.139711093143575E-9
1.625                     0.62                     0                        -9.872006913099444E-5    8.023364473516454E-5     2.564957983029492E-4     0.0026593164177608772    0.027898530980893833     0.03959050202564079      0.01076850943582932      5.5785784785931805E-5    1.3335345110040948E-4    3.3902493302874205E-5    3.204447547427792E-5     2.4083082178767197E-6    1.2866189678971045E-7
1.675                     0.62                     0                        -5.4129205793376775E-5   -7.3930969279663434E-6   7.178833919973695E-5     5.075520881677824E-4     0.0051319053084059665    0.005240253961432957     7.04182784892841E-4      5.68893168519038E-6      1.3599140603443132E-5    3.457314198627022E-6     3.2678369596088234E-6    2.4559487626640914E-7    1.3120708817014885E-8
1.725                     0.62                     0                        -1.8966517665873625E-5   5.736792967137795E-6     2.986786575556763E-5     1.1046993644330357E-4    9.319656277130269E-4     5.050929869782545E-4     -5.601688879009436E-5    1.3526099717094737E-7    3.233358882829251E-7     8.220178330935728E-8     7.769676595263837E-8     5.839274705810572E-9     3.1194589704910826E-10
0.025                     0.76                     0                        0.014649721703772555     0.07293741856822153      0.04886091869676257      0.3213588776200315       1.8542886110796604       2.6564096781582385       0.7698905872095488       -6.883483854605128E-8    -1.6457612044117977E-7   -4.183882780460128E-8    -3.954751833069294E-8    -2.9724589946202923E-9   -1.589155051648104E-10
0.07500000000000001       0.76                     0                        0.01758922089693622      0.08432414724802423      0.055629855180085924     0.3239661360084055       1.852479684566337        2.6510697543947863       0.7681019201574935       -1.426388972312713E-7    -3.409796251109416E-7    -8.66870207496004E-8     -8.193655236474224E-8    -6.1579780215655E-9      -3.290352530499196E-10
0.125                     0.76                     0                        0.027031243352900882     0.11955919251957424      0.07630900883307316      0.3321399653822443       1.8441810762687076       2.6333998737433384       0.7630778695583152       6.400062519150848E-6     1.5299334968445854E-5    3.889542571322465E-6     3.676391727666122E-6     2.763026359216925E-7     1.4762352449043335E-8